 Gaussian 16, Revision C.01,

 ----------------------------------------------------------------------
 #t hf aug-cc-pvdz symm=none int=(grid=ultrafine) guess=(read,tcheck) s
 table=(opt,rrhf)
 ----------------------------------------------------------------------
 -----
 title
 -----
 Symbolic Z-matrix:
 Charge =  0 Multiplicity = 1

 SCF Done:  E(RHF) =  -324.962177372     A.U. after   16 cycles
 Normal termination of Gaussian 16 at Wed Apr  9 18:51:00 2025.
 Gaussian 16:  ES64L-G16RevC.01  3-Jul-2019

 ----------------------------------------------------------------------
 #t hf aug-cc-pvdz iop(5/13=1,5/36=2,99/5=2) pseudo=read geom=check gue
 ss=(read,tcheck) scf=(maxcycle=1)
 ----------------------------------------------------------------------
 -----
 title
 -----
 Structure from the checkpoint file:  "Grambow2020_wb97xd3_008113_reverse_mol1.chk"
 Charge =  0 Multiplicity = 1

                         Standard orientation:
 ---------------------------------------------------------------------
 Center     Atomic      Atomic             Coordinates (Angstroms)
 Number     Number       Type             X           Y           Z
 ---------------------------------------------------------------------
      1          6           0       -2.606811    0.414901    0.113338
      2          7           0       -1.183082    0.616393   -0.046845
      3          6           0       -0.345893   -0.456944   -0.125737
      4          8           0       -0.731185   -1.602553    0.078518
      5          6           0        1.033979   -0.315627   -0.596406
      6          6           0        1.604161    1.814599    0.135659
      7          6           0        2.072282   -1.029674    0.188658
      8          1           0       -3.093880    0.123829   -0.822006
      9          1           0       -3.060247    1.333403    0.484726
     10          1           0       -2.770781   -0.379341    0.838618
     11          1           0       -0.880162    1.473793   -0.471240
     12          1           0        1.393723    1.040160   -0.736252
     13          1           0        1.137583    1.583537    1.085879
     14          1           0        1.211921    2.743660   -0.278486
     15          1           0        2.687619    1.845468    0.218056
     16          1           0        3.078632   -0.839066   -0.182792
     17          1           0        2.034816   -0.900452    1.276442
     18          1           0        1.845518   -2.082849   -0.006243
 ---------------------------------------------------------------------

 SCF Done:  E(RHF) =  -325.304123587     A.U. after    2 cycles

 The electronic state is 1-A.
 Alpha  occ. eigenvalues --  -20.49931 -15.52119 -11.34934 -11.27885 -11.27064
 Alpha  occ. eigenvalues --  -11.26492 -11.24043  -1.44964  -1.23714  -1.06803
 Alpha  occ. eigenvalues --   -0.97750  -0.97051  -0.86707  -0.80661  -0.68396
 Alpha  occ. eigenvalues --   -0.67063  -0.64564  -0.61119  -0.60687  -0.59315
 Alpha  occ. eigenvalues --   -0.58855  -0.57075  -0.55545  -0.53774  -0.52582
 Alpha  occ. eigenvalues --   -0.42391  -0.41760  -0.33928
 Alpha virt. eigenvalues --    0.02695   0.03555   0.04189   0.04453   0.05606
 Alpha virt. eigenvalues --    0.05704   0.06426   0.06825   0.07279   0.08691
 Alpha virt. eigenvalues --    0.09235   0.09247   0.12668   0.13260   0.13915

 Mulliken charges:
               1
     1  C   -0.381154
     2  N    0.601284
     3  C    0.599905
     4  O   -1.336156
     5  C   -0.549513
     6  C   -0.492897
     7  C   -0.281462
     8  H    0.174893
     9  H    0.062217
    10  H    0.123081
    11  H    0.143070
    12  H    0.461975
    13  H    0.303009
    14  H   -0.011657
    15  H    0.048889
    16  H    0.147339
    17  H    0.184898
    18  H    0.202277
 Sum of Mulliken charges =  -0.00000

 Dipole moment (field-independent basis, Debye):
    X=              1.0078    Y=              4.0987    Z=              0.6777  Tot=              4.2749

 Test job not archived.
 1\1\GINC-SE226\SP\RHF\Aug-CC-pVDZ\C5H11N1O1\OHZDE\09-Apr-2025\0\\#t hf
  aug-cc-pvdz iop(5/13=1,5/36=2,99/5=2) pseudo=read geom=check guess=(r
 ead,tcheck) scf=(maxcycle=1)\\title\\0,1\C,0,2.79163942,0.03876137,-0.
 01225491\N,0,1.38091982,-0.17893832,-0.24834119\C,0,0.46849232,0.74645
 414,0.16431635\O,0,0.77932568,1.70362948,0.86416474\C,0,-0.91316208,0.
 72541524,-0.32162031\C,0,-1.30791766,-1.543425,-0.63052075\C,0,-1.9718
 8127,0.92676498,0.6995724\H,0,3.22539461,0.75644122,-0.71483681\H,0,3.
 32048009,-0.91030364,-0.09461751\H,0,2.92394065,0.43169552,0.99364576\

 Normal termination of Gaussian 16 at Wed Apr  9 18:51:07 2025.
