 Gaussian 16, Revision C.01,

 ----------------------------------------------------------------------
 #t hf aug-cc-pvdz symm=none int=(grid=ultrafine) guess=(read,tcheck) s
 table=(opt,rrhf)
 ----------------------------------------------------------------------
 -----
 title
 -----
 Symbolic Z-matrix:
 Charge =  0 Multiplicity = 1

 SCF Done:  E(RHF) =  -358.439695182     A.U. after   17 cycles
 Normal termination of Gaussian 16 at Wed Apr  9 17:37:33 2025.
 Gaussian 16:  ES64L-G16RevC.01  3-Jul-2019

 ----------------------------------------------------------------------
 #t hf aug-cc-pvdz iop(5/13=1,5/36=2,99/5=2) pseudo=read geom=check gue
 ss=(read,tcheck) scf=(maxcycle=1)
 ----------------------------------------------------------------------
 -----
 title
 -----
 Structure from the checkpoint file:  "Grambow2020_wb97xd3_006745_reverse_mol1.chk"
 Charge =  0 Multiplicity = 1

                         Standard orientation:
 ---------------------------------------------------------------------
 Center     Atomic      Atomic             Coordinates (Angstroms)
 Number     Number       Type             X           Y           Z
 ---------------------------------------------------------------------
      1          8           0       -2.510415   -0.338686    0.224826
      2          6           0       -1.420586   -0.541722   -0.215326
      3          6           0       -0.288213    0.479150   -0.105037
      4          8           0       -0.433353    1.657585    0.020826
      5          7           0        0.978899   -0.124296   -0.178591
      6          6           0        1.226065   -1.440215    0.183919
      7          6           0        2.134527    0.517187    0.019571
      8          1           0       -1.163927   -1.457289   -0.782704
      9          1           0        1.096974   -2.241931   -0.532658
     10          1           0        1.678812   -1.614103    1.145997
     11          1           0        2.162923    1.418534    0.622202
     12          1           0        3.012311    0.127275   -0.466678
 ---------------------------------------------------------------------

 SCF Done:  E(RHF) =  -358.795904601     A.U. after    2 cycles

 The electronic state is 1-A.
 Alpha  occ. eigenvalues --  -20.58234 -20.57197 -15.60277 -11.39921 -11.37281
 Alpha  occ. eigenvalues --  -11.32783 -11.28864  -1.52919  -1.50674  -1.33727
 Alpha  occ. eigenvalues --   -1.04114  -0.97626  -0.90363  -0.78219  -0.76754
 Alpha  occ. eigenvalues --   -0.72906  -0.70846  -0.67265  -0.66820  -0.62940
 Alpha  occ. eigenvalues --   -0.59888  -0.54136  -0.51594  -0.47225  -0.44027
 Alpha  occ. eigenvalues --   -0.31113
 Alpha virt. eigenvalues --    0.01389   0.02976   0.03997   0.04699   0.04880
 Alpha virt. eigenvalues --    0.06222   0.06503   0.08306   0.09824   0.10389
 Alpha virt. eigenvalues --    0.10973   0.13130   0.13594   0.14616   0.15065

 Mulliken charges:
               1
     1  O   -1.041566
     2  C    1.043701
     3  C    0.640834
     4  O   -1.163268
     5  N    0.830599
     6  C   -0.263355
     7  C   -0.196302
     8  H    0.136641
     9  H   -0.026104
    10  H   -0.019734
    11  H   -0.001039
    12  H    0.059593
 Sum of Mulliken charges =  -0.00000

 Dipole moment (field-independent basis, Debye):
    X=              3.6634    Y=             -1.8718    Z=             -0.9505  Tot=              4.2223

 Test job not archived.
 1\1\GINC-SE232\SP\RHF\Aug-CC-pVDZ\C4H5N1O2\OHZDE\09-Apr-2025\0\\#t hf
 aug-cc-pvdz iop(5/13=1,5/36=2,99/5=2) pseudo=read geom=check guess=(re
 ad,tcheck) scf=(maxcycle=1)\\title\\0,1\O,0,2.94060592,-0.30906279,-0.
 64701202\C,0,1.78558959,-0.58532325,-0.53609723\C,0,0.9192882,-0.04735
 228,0.60263881\O,0,1.32617954,0.316944,1.66440318\N,0,-0.44589258,-0.0
 3291545,0.26916873\C,0,-0.91870786,0.05694169,-1.03179972\C,0,-1.40411
 619,0.50658814,1.02876618\H,0,1.27031043,-1.29270859,-1.21443869\H,0,-
 1.05504442,-0.83510768,-1.63059508\H,0,-1.27190879,1.01802241,-1.36703

 Normal termination of Gaussian 16 at Wed Apr  9 17:37:38 2025.
