 Gaussian 16, Revision C.01,

 ----------------------------------------------------------------------
 #t hf aug-cc-pvdz symm=none int=(grid=ultrafine) guess=(read,tcheck) s
 table=(opt,rrhf)
 ----------------------------------------------------------------------
 -----
 title
 -----
 Symbolic Z-matrix:
 Charge =  0 Multiplicity = 1

 SCF Done:  E(RHF) =  -286.768935804     A.U. after   12 cycles
 Normal termination of Gaussian 16 at Wed Apr  9 19:20:06 2025.
 Gaussian 16:  ES64L-G16RevC.01  3-Jul-2019

 ----------------------------------------------------------------------
 #t hf aug-cc-pvdz iop(5/13=1,5/36=2,99/5=2) pseudo=read geom=check gue
 ss=(read,tcheck) scf=(maxcycle=1)
 ----------------------------------------------------------------------
 -----
 title
 -----
 Structure from the checkpoint file:  "Grambow2020_wb97xd3_009357_reverse_mol2.chk"
 Charge =  0 Multiplicity = 1

                         Standard orientation:
 ---------------------------------------------------------------------
 Center     Atomic      Atomic             Coordinates (Angstroms)
 Number     Number       Type             X           Y           Z
 ---------------------------------------------------------------------
      1          6           0        2.242792    0.288324   -0.000157
      2          7           0        1.088117   -0.590292    0.000513
      3          6           0       -0.021211   -0.195774    0.905252
      4          6           0       -0.576320    0.953501   -0.000842
      5          6           0       -1.986641    0.354622   -0.000253
      6          6           0       -0.020924   -0.197120   -0.905197
      7          6           0       -1.076187   -0.877088    0.000530
      8          1           0        1.991821    1.359355   -0.001172
      9          1           0        2.853634    0.078466   -0.880332
     10          1           0        2.851422    0.080980    0.882181
     11          1           0        0.049252   -0.223588    1.993024
     12          1           0       -0.291035    2.003298   -0.001006
     13          1           0       -2.586626    0.518523   -0.897452
     14          1           0       -2.586301    0.519794    0.896963
     15          1           0        0.051440   -0.226355   -1.992727
     16          1           0       -1.319477   -1.937219    0.000926
 ---------------------------------------------------------------------

 SCF Done:  E(RHF) =  -287.074846176     A.U. after    2 cycles

 The electronic state is 1-A.
 Alpha  occ. eigenvalues --  -15.48506 -11.27270 -11.27206 -11.24586 -11.24473
 Alpha  occ. eigenvalues --  -11.24295 -11.23431  -1.31002  -1.12745  -0.96183
 Alpha  occ. eigenvalues --   -0.88318  -0.87450  -0.83602  -0.70946  -0.69399
 Alpha  occ. eigenvalues --   -0.66271  -0.64059  -0.61591  -0.57493  -0.53340
 Alpha  occ. eigenvalues --   -0.48650  -0.47180  -0.45855  -0.44487  -0.43587
 Alpha  occ. eigenvalues --   -0.38686
 Alpha virt. eigenvalues --    0.03575   0.03898   0.04058   0.04083   0.05329
 Alpha virt. eigenvalues --    0.05675   0.05694   0.07583   0.08599   0.11297
 Alpha virt. eigenvalues --    0.11779   0.12440   0.13355   0.13524   0.13532

 Mulliken charges:
               1
     1  C   -0.336041
     2  N    0.715461
     3  C   -0.542004
     4  C    0.627621
     5  C    0.107248
     6  C   -0.540911
     7  C    0.677944
     8  H    0.200008
     9  H    0.065112
    10  H    0.065361
    11  H   -0.293609
    12  H   -0.268452
    13  H   -0.005884
    14  H   -0.005725
    15  H   -0.293961
    16  H   -0.172170
 Sum of Mulliken charges =  -0.00000

 Dipole moment (field-independent basis, Debye):
    X=             -0.7826    Y=              1.3387    Z=             -0.0009  Tot=              1.5506

 Test job not archived.
 1\1\GINC-SE029\SP\RHF\Aug-CC-pVDZ\C6H9N1\OHZDE\09-Apr-2025\0\\#t hf au
 g-cc-pvdz iop(5/13=1,5/36=2,99/5=2) pseudo=read geom=check guess=(read
 ,tcheck) scf=(maxcycle=1)\\title\\0,1\C,0,2.18759142,-0.06662154,0.245
 32248\N,0,1.01928913,-0.61767965,-0.41547011\C,0,-0.16770734,-0.835137
 84,0.4497216\C,0,-0.60076864,0.66728962,0.52149987\C,0,-2.01694628,0.3
 4502121,0.03339515\C,0,0.01815767,0.37296312,-0.88582088\C,0,-1.139561
 12,-0.64419805,-0.73970117\H,0,1.96242027,0.74742242,0.95010932\H,0,2.
 88052988,0.31368975,-0.50772209\H,0,2.69769197,-0.86136827,0.79315226\

 Normal termination of Gaussian 16 at Wed Apr  9 19:20:12 2025.
