 Gaussian 16, Revision C.01,

 ----------------------------------------------------------------------
 #t hf aug-cc-pvdz symm=none int=(grid=ultrafine) guess=(read,tcheck) s
 table=(opt,rrhf)
 ----------------------------------------------------------------------
 -----
 title
 -----
 Symbolic Z-matrix:
 Charge =  0 Multiplicity = 1

 SCF Done:  E(RHF) =  -374.602300728     A.U. after   15 cycles
 Normal termination of Gaussian 16 at Wed Apr  9 18:20:01 2025.
 Gaussian 16:  ES64L-G16RevC.01  3-Jul-2019

 ----------------------------------------------------------------------
 #t hf aug-cc-pvdz iop(5/13=1,5/36=2,99/5=2) pseudo=read geom=check gue
 ss=(read,tcheck) scf=(maxcycle=1)
 ----------------------------------------------------------------------
 -----
 title
 -----
 Structure from the checkpoint file:  "Grambow2020_wb97xd3_007329_reverse_mol2.chk"
 Charge =  0 Multiplicity = 1

                         Standard orientation:
 ---------------------------------------------------------------------
 Center     Atomic      Atomic             Coordinates (Angstroms)
 Number     Number       Type             X           Y           Z
 ---------------------------------------------------------------------
      1          7           0       -1.977488   -0.903456   -0.409444
      2          6           0       -0.953725   -0.320320    0.413610
      3          6           0       -0.920513    1.178983    0.125087
      4          8           0        0.073596    1.778358   -0.160246
      5          6           0        1.445972   -0.496383    0.036512
      6          8           0        2.559780   -0.259468   -0.189787
      7          7           0        0.345802   -0.924061    0.293928
      8          1           0       -2.194526   -1.844202   -0.114160
      9          1           0       -1.689847   -0.935682   -1.378887
     10          1           0       -1.909716    1.666673    0.195322
     11          1           0       -1.281519   -0.418978    1.455345
 ---------------------------------------------------------------------

 SCF Done:  E(RHF) =  -374.972655264     A.U. after    2 cycles

 The electronic state is 1-A.
 Alpha  occ. eigenvalues --  -20.59542 -20.57828 -15.52559 -15.52468 -11.41327
 Alpha  occ. eigenvalues --  -11.36433 -11.35118  -1.54648  -1.51514  -1.29906
 Alpha  occ. eigenvalues --   -1.21946  -1.01496  -0.88208  -0.77572  -0.75902
 Alpha  occ. eigenvalues --   -0.72620  -0.72239  -0.68372  -0.66203  -0.63652
 Alpha  occ. eigenvalues --   -0.60725  -0.55044  -0.50803  -0.50295  -0.45697
 Alpha  occ. eigenvalues --   -0.43565
 Alpha virt. eigenvalues --    0.02616   0.04249   0.04582   0.05613   0.08007
 Alpha virt. eigenvalues --    0.08335   0.09211   0.10064   0.10520   0.12194
 Alpha virt. eigenvalues --    0.13383   0.13596   0.14458   0.15208   0.15462

 Mulliken charges:
               1
     1  N    0.534887
     2  C   -1.989613
     3  C    1.391682
     4  O   -1.122597
     5  C    0.341780
     6  O   -0.828719
     7  N    0.997559
     8  H    0.201645
     9  H    0.196996
    10  H    0.136598
    11  H    0.139783
 Sum of Mulliken charges =  -0.00000

 Dipole moment (field-independent basis, Debye):
    X=             -3.3177    Y=             -1.2328    Z=              0.5433  Tot=              3.5808

 Test job not archived.
 1\1\GINC-SE174\SP\RHF\Aug-CC-pVDZ\C3H4N2O2\OHZDE\09-Apr-2025\0\\#t hf
 aug-cc-pvdz iop(5/13=1,5/36=2,99/5=2) pseudo=read geom=check guess=(re
 ad,tcheck) scf=(maxcycle=1)\\title\\0,1\N,0,-1.6081182,-0.26465166,-0.
 23515809\C,0,-0.31207666,-0.26590939,0.38599557\C,0,0.10136078,1.18764
 032,0.6062708\O,0,1.14730479,1.64204227,0.24788807\C,0,1.7986501,-0.74
 924013,-0.72889071\O,0,2.86166908,-0.66721817,-1.1884231\N,0,0.6985547
 1,-1.01753034,-0.30775376\H,0,-2.02724506,-1.1828589,-0.212124\H,0,-1.
 54784396,0.03033959,-1.20104741\H,0,-0.66392937,1.79323029,1.12481524\

 Normal termination of Gaussian 16 at Wed Apr  9 18:20:05 2025.
