 Gaussian 16, Revision C.01,

 ----------------------------------------------------------------------
 #t hf aug-cc-pvdz symm=none int=(grid=ultrafine) guess=(read,tcheck) s
 table=(opt,rrhf)
 ----------------------------------------------------------------------
 -----
 title
 -----
 Symbolic Z-matrix:
 Charge =  0 Multiplicity = 1

 SCF Done:  E(RHF) =  -283.532395911     A.U. after   17 cycles
 Normal termination of Gaussian 16 at Wed Apr  9 15:43:39 2025.
 Gaussian 16:  ES64L-G16RevC.01  3-Jul-2019

 ----------------------------------------------------------------------
 #t hf aug-cc-pvdz iop(5/13=1,5/36=2,99/5=2) pseudo=read geom=check gue
 ss=(read,tcheck) scf=(maxcycle=1)
 ----------------------------------------------------------------------
 -----
 title
 -----
 Structure from the checkpoint file:  "Grambow2020_b97d3_006720_reverse_mol1.chk"
 Charge =  0 Multiplicity = 1

                         Standard orientation:
 ---------------------------------------------------------------------
 Center     Atomic      Atomic             Coordinates (Angstroms)
 Number     Number       Type             X           Y           Z
 ---------------------------------------------------------------------
      1          6           0        1.678479   -0.262479   -0.607974
      2          6           0        0.281847    0.962926    0.479077
      3          8           0       -0.741654    1.204549   -0.251810
      4          6           0       -1.495658   -0.444833   -0.223404
      5          7           0       -0.727715   -1.285719    0.193333
      6          6           0        0.790190   -0.407754    0.485509
      7          1           0        1.345537    0.177516   -1.543115
      8          1           0        2.715840   -0.585920   -0.531240
      9          1           0        0.703512    1.738506    1.124853
     10          1           0       -2.491803   -0.261993   -0.600121
     11          1           0        1.225002   -0.791629    1.411528
 ---------------------------------------------------------------------

 SCF Done:  E(RHF) =  -283.817567215     A.U. after    2 cycles

 The electronic state is 1-A.
 Alpha  occ. eigenvalues --  -20.58404 -15.52769 -11.36317 -11.35236 -11.31351
 Alpha  occ. eigenvalues --  -11.22786  -1.49293  -1.24470  -1.09198  -0.88544
 Alpha  occ. eigenvalues --   -0.82043  -0.80344  -0.73323  -0.65129  -0.63939
 Alpha  occ. eigenvalues --   -0.63321  -0.56536  -0.54067  -0.53895  -0.48647
 Alpha  occ. eigenvalues --   -0.45185  -0.29349
 Alpha virt. eigenvalues --    0.03290   0.04032   0.04515   0.05065   0.06223
 Alpha virt. eigenvalues --    0.08162   0.09184   0.09263   0.10668   0.10873
 Alpha virt. eigenvalues --    0.13473   0.14135   0.14456   0.14700   0.15309

 Mulliken charges:
               1
     1  C   -0.060892
     2  C    1.232468
     3  O   -1.248773
     4  C   -0.358146
     5  N    0.526239
     6  C   -0.056539
     7  H   -0.061710
     8  H   -0.084580
     9  H    0.044240
    10  H    0.073116
    11  H   -0.005423
 Sum of Mulliken charges =  -0.00000

 Dipole moment (field-independent basis, Debye):
    X=             -0.6616    Y=              1.5615    Z=              1.0674  Tot=              2.0038

 Test job not archived.
 1\1\GINC-SE114\SP\RHF\Aug-CC-pVDZ\C4H5N1O1\OHZDE\09-Apr-2025\0\\#t hf
 aug-cc-pvdz iop(5/13=1,5/36=2,99/5=2) pseudo=read geom=check guess=(re
 ad,tcheck) scf=(maxcycle=1)\\title\\0,1\C,0,-1.43912129,0.49599341,0.1
 4921592\C,0,0.05336823,-0.76956749,-0.74783975\O,0,0.96694155,-0.04878
 426,-1.28261752\C,0,1.76180659,0.55600554,0.23138602\N,0,1.07682408,0.
 35683703,1.21201285\C,0,-0.41330016,-0.37957648,0.58157673\H,0,-1.2417
 4891,1.26416243,-0.5923331\H,0,-2.44888313,0.41353016,0.54946744\H,0,-
 0.30165594,-1.6790424,-1.24095736\H,0,2.69564017,0.96135484,-0.1309640

 Normal termination of Gaussian 16 at Wed Apr  9 15:43:43 2025.
