 Gaussian 16, Revision C.01,

 ----------------------------------------------------------------------
 #t hf aug-cc-pvdz symm=none int=(grid=ultrafine) guess=(read,tcheck) s
 table=(opt,rrhf)
 ----------------------------------------------------------------------
 -----
 title
 -----
 Symbolic Z-matrix:
 Charge =  0 Multiplicity = 1

 SCF Done:  E(RHF) =  -310.064951459     A.U. after   15 cycles

 1\1\GINC-SE224\Stability\RHF\Aug-CC-pVDZ\C6H14O1\OHZDE\09-Apr-2025\0\\
 #t hf aug-cc-pvdz symm=none int=(grid=ultrafine) guess=(read,tcheck) s
 table=(opt,rrhf)\\title\\0,1\C,0,-3.41571271,-0.08375235,-0.78154682\C
 ,0,-2.2591947,-0.31109096,0.18238938\C,0,-0.89705767,-0.1227538,-0.474
 23005\C,0,0.26614927,-0.34526202,0.48986099\C,0,1.5881763,-0.22500558,
 -0.18447104\O,0,2.58661119,0.20632265,0.51958459\C,0,3.78698601,0.4390
 1361,0.02502982\H,0,-4.38000635,-0.21864262,-0.28851567\H,0,-3.3707892
 3,-0.78061035,-1.62210073\H,0,-3.39172439,0.92841632,-1.19256542\H,0,-

 Normal termination of Gaussian 16 at Wed Apr  9 18:35:03 2025.
 Gaussian 16:  ES64L-G16RevC.01  3-Jul-2019

 ----------------------------------------------------------------------
 #t hf aug-cc-pvdz iop(5/13=1,5/36=2,99/5=2) pseudo=read geom=check gue
 ss=(read,tcheck) scf=(maxcycle=1)
 ----------------------------------------------------------------------
 -----
 title
 -----
 Structure from the checkpoint file:  "Grambow2020_wb97xd3_007726_forward_mol1.chk"
 Charge =  0 Multiplicity = 1

                         Standard orientation:
 ---------------------------------------------------------------------
 Center     Atomic      Atomic             Coordinates (Angstroms)
 Number     Number       Type             X           Y           Z
 ---------------------------------------------------------------------
      1          6           0        3.682927    0.447028   -0.080535
      2          6           0        2.473169   -0.477257   -0.104466
      3          6           0        1.159082    0.263875    0.109864
      4          6           0       -0.057726   -0.658427    0.082130
      5          6           0       -1.324964    0.071616    0.361573
      6          8           0       -2.409926   -0.371488   -0.190810
      7          6           0       -3.580335    0.228947   -0.094634
      8          1           0        4.611004   -0.104313   -0.241261
      9          1           0        3.764478    0.964459    0.878514
     10          1           0        3.610550    1.209527   -0.859864
     11          1           0        2.435302   -1.007760   -1.061774
     12          1           0        2.583799   -1.248707    0.665061
     13          1           0        1.193508    0.791393    1.070092
     14          1           0        1.038994    1.036282   -0.656338
     15          1           0        0.088468   -1.460215    0.820009
     16          1           0       -0.142259   -1.145031   -0.893076
     17          1           0       -1.432668    0.681161    1.255088
     18          1           0       -1.813031    1.767776   -0.573202
     19          1           0       -3.802525    0.755508    0.826394
     20          1           0       -4.361509   -0.274012   -0.643629
     21          1           0       -2.607621    1.751140   -0.703133
 ---------------------------------------------------------------------

 SCF Done:  E(RHF) =  -310.403357407     A.U. after    2 cycles

 The electronic state is 1-A.
 Alpha  occ. eigenvalues --  -20.64955 -11.31312 -11.27367 -11.24552 -11.23411
 Alpha  occ. eigenvalues --  -11.23150 -11.22531  -1.58107  -1.10209  -1.04065
 Alpha  occ. eigenvalues --   -0.97007  -0.88103  -0.82844  -0.80473  -0.71172
 Alpha  occ. eigenvalues --   -0.69300  -0.68074  -0.65061  -0.59939  -0.59007
 Alpha  occ. eigenvalues --   -0.57771  -0.54127  -0.53168  -0.51220  -0.49177
 Alpha  occ. eigenvalues --   -0.49026  -0.48003  -0.47583  -0.26226
 Alpha virt. eigenvalues --    0.03325   0.03598   0.03700   0.04428   0.05167
 Alpha virt. eigenvalues --    0.05383   0.06397   0.06725   0.07750   0.08143
 Alpha virt. eigenvalues --    0.08590   0.09541   0.10279   0.10493   0.10990

 Mulliken charges:
               1
     1  C   -0.389861
     2  C   -0.231819
     3  C   -0.343466
     4  C   -0.577201
     5  C    1.185349
     6  O   -1.133751
     7  C    0.300286
     8  H    0.116622
     9  H    0.158900
    10  H    0.162997
    11  H    0.117546
    12  H    0.109415
    13  H    0.128537
    14  H    0.123184
    15  H    0.206819
    16  H    0.061288
    17  H   -0.062013
    18  H    0.069682
    19  H    0.022468
    20  H   -0.104607
    21  H    0.079623
 Sum of Mulliken charges =  -0.00000

 Dipole moment (field-independent basis, Debye):
    X=              1.2790    Y=             -0.9109    Z=              1.2671  Tot=              2.0177

 Test job not archived.
 1\1\GINC-SE224\SP\RHF\Aug-CC-pVDZ\C6H14O1\OHZDE\09-Apr-2025\0\\#t hf a
 ug-cc-pvdz iop(5/13=1,5/36=2,99/5=2) pseudo=read geom=check guess=(rea
 d,tcheck) scf=(maxcycle=1)\\title\\0,1\C,0,-3.41571271,-0.08375235,-0.
 78154682\C,0,-2.2591947,-0.31109096,0.18238938\C,0,-0.89705767,-0.1227
 538,-0.47423005\C,0,0.26614927,-0.34526202,0.48986099\C,0,1.5881763,-0
 .22500558,-0.18447104\O,0,2.58661119,0.20632265,0.51958459\C,0,3.78698
 601,0.43901361,0.02502982\H,0,-4.38000635,-0.21864262,-0.28851567\H,0,
 -3.37078923,-0.78061035,-1.62210073\H,0,-3.39172439,0.92841632,-1.1925

 Normal termination of Gaussian 16 at Wed Apr  9 18:35:11 2025.
