 Gaussian 16, Revision C.01,

 ----------------------------------------------------------------------
 #t hf aug-cc-pvdz symm=none int=(grid=ultrafine) guess=(read,tcheck) s
 table=(opt,rrhf)
 ----------------------------------------------------------------------
 -----
 title
 -----
 Symbolic Z-matrix:
 Charge =  0 Multiplicity = 1

 SCF Done:  E(RHF) =  -344.709266576     A.U. after   16 cycles

 1\1\GINC-SE253\Stability\RHF\Aug-CC-pVDZ\C5H10O2\OHZDE\09-Apr-2025\0\\
 #t hf aug-cc-pvdz symm=none int=(grid=ultrafine) guess=(read,tcheck) s
 table=(opt,rrhf)\\title\\0,1\C,0,2.31773352,-0.02001615,-0.20466543\C,
 0,1.11253796,0.50834385,0.5296395\O,0,0.03512829,0.64412894,-0.6004078
 8\C,0,-1.18825629,1.09719955,-0.03772737\C,0,-1.65551224,-0.18171633,0
 .65480983\C,0,-0.59586494,-1.06978755,0.06269824\O,0,-0.80569498,-1.74
 406045,-1.04289797\H,0,2.60019181,0.56077648,-1.09674016\H,0,2.1989084
 7,-1.0626279,-0.52945751\H,0,3.1672094,-0.00210752,0.48352218\H,0,1.30

 Normal termination of Gaussian 16 at Wed Apr  9 03:39:46 2025.
 Gaussian 16:  ES64L-G16RevC.01  3-Jul-2019

 ----------------------------------------------------------------------
 #t hf aug-cc-pvdz iop(5/13=1,5/36=2,99/5=2) pseudo=read geom=check gue
 ss=(read,tcheck) scf=(maxcycle=1)
 ----------------------------------------------------------------------
 -----
 title
 -----
 Structure from the checkpoint file:  "Grambow2020_wb97xd3_007398_reverse_mol1.chk"
 Charge =  0 Multiplicity = 1

                         Standard orientation:
 ---------------------------------------------------------------------
 Center     Atomic      Atomic             Coordinates (Angstroms)
 Number     Number       Type             X           Y           Z
 ---------------------------------------------------------------------
      1          6           0       -2.378449    0.425106    0.034485
      2          6           0       -1.315714   -0.553281    0.463691
      3          8           0       -0.275257   -0.488884   -0.706590
      4          6           0        0.822750   -1.341314   -0.412828
      5          6           0        1.533233   -0.507282    0.651675
      6          6           0        0.684793    0.721505    0.471814
      7          8           0        1.041403    1.687949   -0.340486
      8          1           0       -2.762895    0.264132   -0.984921
      9          1           0       -2.045034    1.470471    0.086387
     10          1           0       -3.221892    0.331647    0.723979
     11          1           0       -1.722532   -1.570050    0.362201
     12          1           0        1.411877   -1.467207   -1.324392
     13          1           0        0.493969   -2.321210   -0.063339
     14          1           0        1.410115   -0.889206    1.661929
     15          1           0        2.588319   -0.302090    0.453689
     16          1           0        0.018501    1.053724    1.250884
     17          1           0        1.620738    1.368869   -1.042837
 ---------------------------------------------------------------------

 SCF Done:  E(RHF) =  -345.067412616     A.U. after    2 cycles

 The electronic state is 1-A.
 Alpha  occ. eigenvalues --  -20.64612 -20.54450 -11.42627 -11.29831 -11.27230
 Alpha  occ. eigenvalues --  -11.18219 -11.17869  -1.57791  -1.44156  -1.08594
 Alpha  occ. eigenvalues --   -0.97894  -0.93426  -0.86225  -0.77501  -0.74042
 Alpha  occ. eigenvalues --   -0.72348  -0.67348  -0.65501  -0.63051  -0.58759
 Alpha  occ. eigenvalues --   -0.56107  -0.54072  -0.52208  -0.50303  -0.46600
 Alpha  occ. eigenvalues --   -0.45964  -0.42730  -0.24817
 Alpha virt. eigenvalues --    0.02023   0.03512   0.03744   0.05030   0.06119
 Alpha virt. eigenvalues --    0.06238   0.06828   0.07086   0.07582   0.09407
 Alpha virt. eigenvalues --    0.10120   0.11251   0.12366   0.13070   0.13354

 Mulliken charges:
               1
     1  C   -0.401731
     2  C   -0.027326
     3  O   -1.283049
     4  C    0.640756
     5  C   -0.359616
     6  C    1.891097
     7  O   -1.365059
     8  H    0.149859
     9  H    0.048374
    10  H    0.137101
    11  H   -0.235658
    12  H   -0.038069
    13  H    0.178355
    14  H    0.151178
    15  H    0.070283
    16  H    0.114146
    17  H    0.329358
 Sum of Mulliken charges =   0.00000

 Dipole moment (field-independent basis, Debye):
    X=              5.7099    Y=              0.6130    Z=             -0.6897  Tot=              5.7840

 Test job not archived.
 1\1\GINC-SE253\SP\RHF\Aug-CC-pVDZ\C5H10O2\OHZDE\09-Apr-2025\0\\#t hf a
 ug-cc-pvdz iop(5/13=1,5/36=2,99/5=2) pseudo=read geom=check guess=(rea
 d,tcheck) scf=(maxcycle=1)\\title\\0,1\C,0,2.31773352,-0.02001615,-0.2
 0466543\C,0,1.11253796,0.50834385,0.5296395\O,0,0.03512829,0.64412894,
 -0.60040788\C,0,-1.18825629,1.09719955,-0.03772737\C,0,-1.65551224,-0.
 18171633,0.65480983\C,0,-0.59586494,-1.06978755,0.06269824\O,0,-0.8056
 9498,-1.74406045,-1.04289797\H,0,2.60019181,0.56077648,-1.09674016\H,0
 ,2.19890847,-1.0626279,-0.52945751\H,0,3.1672094,-0.00210752,0.4835221

 Normal termination of Gaussian 16 at Wed Apr  9 03:39:51 2025.
