 Gaussian 16, Revision C.01,

 ----------------------------------------------------------------------
 #t hf aug-cc-pvdz symm=none int=(grid=ultrafine) guess=(read,tcheck) s
 table=(opt,rrhf)
 ----------------------------------------------------------------------
 -----
 title
 -----
 Symbolic Z-matrix:
 Charge =  0 Multiplicity = 1

 SCF Done:  E(RHF) =  -321.544883174     A.U. after   14 cycles
 Normal termination of Gaussian 16 at Wed Apr  9 19:19:47 2025.
 Gaussian 16:  ES64L-G16RevC.01  3-Jul-2019

 ----------------------------------------------------------------------
 #t hf aug-cc-pvdz iop(5/13=1,5/36=2,99/5=2) pseudo=read geom=check gue
 ss=(read,tcheck) scf=(maxcycle=1)
 ----------------------------------------------------------------------
 -----
 title
 -----
 Structure from the checkpoint file:  "Grambow2020_wb97xd3_009374_reverse_mol2.chk"
 Charge =  0 Multiplicity = 1

                         Standard orientation:
 ---------------------------------------------------------------------
 Center     Atomic      Atomic             Coordinates (Angstroms)
 Number     Number       Type             X           Y           Z
 ---------------------------------------------------------------------
      1          8           0       -0.953164    1.482352   -0.717480
      2          6           0       -0.611431    0.608392    0.014596
      3          6           0        0.592223    0.623077    0.914838
      4          6           0        1.736750   -0.203032    0.385536
      5          6           0        1.848395   -0.681376   -0.841945
      6          6           0       -1.965097   -1.589401    0.167216
      7          7           0       -1.359454   -0.592865    0.086601
      8          1           0        0.901296    1.664014    1.028330
      9          1           0        0.296894    0.247055    1.897754
     10          1           0        2.528578   -0.387263    1.104749
     11          1           0        1.091463   -0.524042   -1.603204
     12          1           0        2.718222   -1.254481   -1.135436
 ---------------------------------------------------------------------

 SCF Done:  E(RHF) =  -321.861295687     A.U. after    2 cycles

 The electronic state is 1-A.
 Alpha  occ. eigenvalues --  -20.58120 -15.55642 -11.42288 -11.32128 -11.28418
 Alpha  occ. eigenvalues --  -11.27284 -11.25619  -1.53248  -1.30337  -1.12567
 Alpha  occ. eigenvalues --   -1.03201  -0.96497  -0.81475  -0.73150  -0.70471
 Alpha  occ. eigenvalues --   -0.68574  -0.63322  -0.62616  -0.59442  -0.55425
 Alpha  occ. eigenvalues --   -0.54120  -0.52069  -0.51748  -0.47616  -0.40082
 Alpha virt. eigenvalues --    0.02857   0.03746   0.04530   0.04756   0.06182
 Alpha virt. eigenvalues --    0.07011   0.08470   0.08705   0.09460   0.10280
 Alpha virt. eigenvalues --    0.10993   0.12185   0.13583   0.13867   0.14159

 Mulliken charges:
               1
     1  O   -1.182146
     2  C    0.607972
     3  C   -0.521555
     4  C    0.619136
     5  C   -0.129168
     6  C   -0.554687
     7  N    0.990041
     8  H    0.233324
     9  H    0.254081
    10  H   -0.157656
    11  H   -0.052549
    12  H   -0.106794
 Sum of Mulliken charges =   0.00000

 Dipole moment (field-independent basis, Debye):
    X=              2.8040    Y=              0.1549    Z=              1.7570  Tot=              3.3126

 Test job not archived.
 1\1\GINC-SE113\SP\RHF\Aug-CC-pVDZ\C5H5N1O1\OHZDE\09-Apr-2025\0\\#t hf
 aug-cc-pvdz iop(5/13=1,5/36=2,99/5=2) pseudo=read geom=check guess=(re
 ad,tcheck) scf=(maxcycle=1)\\title\\0,1\O,0,-1.33156816,0.32227172,1.8
 1629159\C,0,-0.39158454,0.55994032,1.12602553\C,0,-0.42820991,0.910653
 88,-0.3351701\C,0,-0.02282407,-0.23400512,-1.22846537\C,0,0.09271736,-
 1.50025895,-0.86619535\C,0,2.00563954,0.49233613,2.09284743\N,0,0.9174
 753,0.51599341,1.66655611\H,0,-1.4467411,1.2268925,-0.56871825\H,0,0.2
 3899751,1.75926223,-0.50673085\H,0,0.16847345,0.04625181,-2.25951413\H

 Normal termination of Gaussian 16 at Wed Apr  9 19:19:51 2025.
