 Gaussian 16, Revision C.01,

 ----------------------------------------------------------------------
 #t hf aug-cc-pvdz symm=none int=(grid=ultrafine) guess=(read,tcheck) s
 table=(opt,rrhf)
 ----------------------------------------------------------------------
 -----
 title
 -----
 Symbolic Z-matrix:
 Charge =  0 Multiplicity = 1

 SCF Done:  E(RHF) =  -338.741271891     A.U. after   14 cycles
 Normal termination of Gaussian 16 at Wed Apr  9 19:09:52 2025.
 Gaussian 16:  ES64L-G16RevC.01  3-Jul-2019

 ----------------------------------------------------------------------
 #t hf aug-cc-pvdz iop(5/13=1,5/36=2,99/5=2) pseudo=read geom=check gue
 ss=(read,tcheck) scf=(maxcycle=1)
 ----------------------------------------------------------------------
 -----
 title
 -----
 Structure from the checkpoint file:  "Grambow2020_wb97xd3_008820_reverse_mol2.chk"
 Charge =  0 Multiplicity = 1

                         Standard orientation:
 ---------------------------------------------------------------------
 Center     Atomic      Atomic             Coordinates (Angstroms)
 Number     Number       Type             X           Y           Z
 ---------------------------------------------------------------------
      1          7           0        1.939321   -0.731569    0.145589
      2          6           0        0.677924   -0.588649    0.125480
      3          6           0        0.086449    0.790745    0.429927
      4          8           0        0.508594    1.740791   -0.513458
      5          7           0       -1.339425    0.571575    0.319036
      6          6           0       -1.556620   -0.696015   -0.150316
      7          6           0       -0.440163   -1.448145   -0.221283
      8          1           0        2.213481   -1.673220   -0.122849
      9          1           0        0.347651    1.115524    1.443405
     10          1           0        1.438322    1.551650   -0.688494
     11          1           0       -1.923915    1.336778    0.031711
     12          1           0       -2.566312   -1.002297   -0.391500
     13          1           0       -0.382791   -2.482427   -0.519835
 ---------------------------------------------------------------------

 SCF Done:  E(RHF) =  -339.086886660     A.U. after    2 cycles

 The electronic state is 1-A.
 Alpha  occ. eigenvalues --  -20.55699 -15.52596 -15.48240 -11.32813 -11.31214
 Alpha  occ. eigenvalues --  -11.29373 -11.23095  -1.47150  -1.28168  -1.20726
 Alpha  occ. eigenvalues --   -1.04729  -0.97561  -0.82865  -0.80239  -0.77087
 Alpha  occ. eigenvalues --   -0.70661  -0.66460  -0.65590  -0.62155  -0.61857
 Alpha  occ. eigenvalues --   -0.55156  -0.53117  -0.48900  -0.47825  -0.43535
 Alpha  occ. eigenvalues --   -0.34497
 Alpha virt. eigenvalues --    0.03069   0.03866   0.04571   0.05865   0.06168
 Alpha virt. eigenvalues --    0.06750   0.07923   0.09546   0.11532   0.12063
 Alpha virt. eigenvalues --    0.12213   0.13353   0.14051   0.14190   0.15201

 Mulliken charges:
               1
     1  N    0.882020
     2  C   -1.780880
     3  C    0.517162
     4  O   -1.339198
     5  N    0.644351
     6  C   -0.536126
     7  C    1.138281
     8  H    0.073515
     9  H    0.213965
    10  H    0.345615
    11  H    0.168866
    12  H   -0.149563
    13  H   -0.178007
 Sum of Mulliken charges =  -0.00000

 Dipole moment (field-independent basis, Debye):
    X=             -2.9542    Y=             -1.1711    Z=             -0.5776  Tot=              3.2300

 Test job not archived.
 1\1\GINC-SE220\SP\RHF\Aug-CC-pVDZ\C4H6N2O1\OHZDE\09-Apr-2025\0\\#t hf
 aug-cc-pvdz iop(5/13=1,5/36=2,99/5=2) pseudo=read geom=check guess=(re
 ad,tcheck) scf=(maxcycle=1)\\title\\0,1\N,0,-1.92690052,0.82206018,-0.
 21040669\C,0,-0.70172752,0.5488268,-0.02001818\C,0,-0.32602576,-0.8503
 6973,0.47632264\O,0,-0.71010625,-1.83438326,-0.44832234\N,0,1.11613838
 ,-0.79022211,0.57629665\C,0,1.54619031,0.39988397,0.05384981\C,0,0.547
 49309,1.25324478,-0.24879159\H,0,-2.04706313,1.75833261,-0.58840699\H,
 0,-0.77113479,-1.05225143,1.45712242\H,0,-1.57514444,-1.56739864,-0.78

 Normal termination of Gaussian 16 at Wed Apr  9 19:09:56 2025.
