 Gaussian 16, Revision C.01,

 ----------------------------------------------------------------------
 #t hf aug-cc-pvdz symm=none int=(grid=ultrafine) guess=(read,tcheck) s
 table=(opt,rrhf)
 ----------------------------------------------------------------------
 -----
 title
 -----
 Symbolic Z-matrix:
 Charge =  0 Multiplicity = 1

 SCF Done:  E(RHF) =  -281.288015604     A.U. after   15 cycles
 Normal termination of Gaussian 16 at Wed Apr  9 03:05:34 2025.
 Gaussian 16:  ES64L-G16RevC.01  3-Jul-2019

 ----------------------------------------------------------------------
 #t hf aug-cc-pvdz iop(5/13=1,5/36=2,99/5=2) pseudo=read geom=check gue
 ss=(read,tcheck) scf=(maxcycle=1)
 ----------------------------------------------------------------------
 -----
 title
 -----
 Structure from the checkpoint file:  "Grambow2020_b97d3_006498_forward_mol2.chk"
 Charge =  0 Multiplicity = 1

                         Standard orientation:
 ---------------------------------------------------------------------
 Center     Atomic      Atomic             Coordinates (Angstroms)
 Number     Number       Type             X           Y           Z
 ---------------------------------------------------------------------
      1          8           0        0.159721    1.723879    0.000076
      2          6           0        0.043554    0.505307   -0.000021
      3          6           0       -1.216348   -0.198375   -0.000169
      4          6           0       -2.282038   -0.790347   -0.000085
      5          6           0        1.228136   -0.374281   -0.000064
      6          7           0        2.186469   -1.048646    0.000068
      7          1           0       -3.222866   -1.304332    0.000949
 ---------------------------------------------------------------------

 SCF Done:  E(RHF) =  -281.554303752     A.U. after    2 cycles

 The electronic state is 1-A.
 Alpha  occ. eigenvalues --  -20.61496 -15.57187 -11.44812 -11.32628 -11.32268
 Alpha  occ. eigenvalues --  -11.30552  -1.53232  -1.26456  -1.11156  -1.00856
 Alpha  occ. eigenvalues --   -0.85074  -0.76923  -0.71922  -0.65422  -0.62672
 Alpha  occ. eigenvalues --   -0.54704  -0.52540  -0.51477  -0.46507  -0.45791
 Alpha virt. eigenvalues --   -0.00351   0.02365   0.06078   0.07401   0.08342
 Alpha virt. eigenvalues --    0.08508   0.09221   0.11541   0.12055   0.12593
 Alpha virt. eigenvalues --    0.13047   0.13959   0.14889   0.15088   0.15194

 Mulliken charges:
               1
     1  O   -1.197052
     2  C    1.465342
     3  C    0.329723
     4  C    0.266997
     5  C   -1.352133
     6  N    0.754594
     7  H   -0.267469
 Sum of Mulliken charges =   0.00000

 Dipole moment (field-independent basis, Debye):
    X=             -4.4356    Y=             -0.8535    Z=              0.0007  Tot=              4.5170

 Test job not archived.
 1\1\GINC-SE162\SP\RHF\Aug-CC-pVDZ\C4H1N1O1\OHZDE\09-Apr-2025\0\\#t hf
 aug-cc-pvdz iop(5/13=1,5/36=2,99/5=2) pseudo=read geom=check guess=(re
 ad,tcheck) scf=(maxcycle=1)\\title\\0,1\O,0,-0.90177972,-1.80484559,0.
 20537883\C,0,-0.59386621,-0.62604285,0.08695418\C,0,0.75973879,-0.1398
 934,-0.03109173\C,0,1.90418528,0.26815048,-0.13043119\C,0,-1.62194306,
 0.43173629,0.05420942\N,0,-2.4595617,1.25090768,0.03135279\H,0,2.91322
 656,0.61998738,-0.21637226\\Version=ES64L-G16RevC.01\State=1-A\HF=-281
 .5543038\RMSD=2.474e-02\Dipole=1.7735102,0.0454278,-0.1035168\Quadrupo

 Normal termination of Gaussian 16 at Wed Apr  9 03:05:37 2025.
