 Gaussian 16, Revision C.01,

 ----------------------------------------------------------------------
 #t hf aug-cc-pvdz symm=none int=(grid=ultrafine) guess=(read,tcheck) s
 table=(opt,rrhf)
 ----------------------------------------------------------------------
 -----
 title
 -----
 Symbolic Z-matrix:
 Charge =  0 Multiplicity = 1

 SCF Done:  E(RHF) =  -301.626578495     A.U. after   14 cycles
 Normal termination of Gaussian 16 at Wed Apr  9 18:38:27 2025.
 Gaussian 16:  ES64L-G16RevC.01  3-Jul-2019

 ----------------------------------------------------------------------
 #t hf aug-cc-pvdz iop(5/13=1,5/36=2,99/5=2) pseudo=read geom=check gue
 ss=(read,tcheck) scf=(maxcycle=1)
 ----------------------------------------------------------------------
 -----
 title
 -----
 Structure from the checkpoint file:  "Grambow2020_wb97xd3_007930_reverse_mol2.chk"
 Charge =  0 Multiplicity = 1

                         Standard orientation:
 ---------------------------------------------------------------------
 Center     Atomic      Atomic             Coordinates (Angstroms)
 Number     Number       Type             X           Y           Z
 ---------------------------------------------------------------------
      1          6           0        1.614370    0.782588    0.001802
      2          6           0        1.661594   -0.780876   -0.000865
      3          6           0        0.154461   -0.652662   -0.001103
      4          7           0       -1.107338   -1.079004    0.001009
      5          6           0       -2.016332    0.005445    0.000874
      6          6           0       -1.181788    1.105631   -0.000412
      7          7           0        0.139245    0.657367   -0.001911
      8          1           0        2.007210    1.267092   -0.890777
      9          1           0        2.002515    1.260478    0.899976
     10          1           0        2.097801   -1.226187   -0.893915
     11          1           0        2.099593   -1.228432    0.890240
     12          1           0       -1.402848   -2.037634    0.000908
     13          1           0       -1.421455    2.155386   -0.001890
 ---------------------------------------------------------------------

 SCF Done:  E(RHF) =  -301.939085625     A.U. after    2 cycles

 The electronic state is 1-A.
 Alpha  occ. eigenvalues --  -15.55966 -15.55173 -11.32384 -11.32205 -11.29762
 Alpha  occ. eigenvalues --  -11.22637 -11.19149  -1.38152  -1.23599  -1.09549
 Alpha  occ. eigenvalues --   -0.96465  -0.94189  -0.84418  -0.81564  -0.73070
 Alpha  occ. eigenvalues --   -0.72484  -0.65422  -0.60541  -0.58480  -0.58275
 Alpha  occ. eigenvalues --   -0.57586  -0.55225  -0.46178  -0.32485  -0.30386
 Alpha virt. eigenvalues --    0.02476   0.03308   0.03490   0.04303   0.05558
 Alpha virt. eigenvalues --    0.05867   0.07622   0.09176   0.10776   0.11452
 Alpha virt. eigenvalues --    0.12086   0.13167   0.13911   0.14086   0.14989

 Mulliken charges:
               1
     1  C    0.096149
     2  C    0.192688
     3  C   -1.135553
     4  N    0.694964
     5  C   -0.722066
     6  C    0.002622
     7  N    0.685701
     8  H   -0.015065
     9  H   -0.012563
    10  H    0.110166
    11  H    0.109957
    12  H    0.111752
    13  H   -0.118754
 Sum of Mulliken charges =   0.00000

 Dipole moment (field-independent basis, Debye):
    X=              7.2457    Y=             -1.4417    Z=             -0.0003  Tot=              7.3878

 Test job not archived.
 1\1\GINC-SE113\SP\RHF\Aug-CC-pVDZ\C5H6N2\OHZDE\09-Apr-2025\0\\#t hf au
 g-cc-pvdz iop(5/13=1,5/36=2,99/5=2) pseudo=read geom=check guess=(read
 ,tcheck) scf=(maxcycle=1)\\title\\0,1\C,0,-1.38088503,-0.50791054,0.00
 727023\C,0,-1.13059753,1.0318004,0.12261864\C,0,0.32386855,0.62529815,
 0.03792047\N,0,1.64293818,0.8072737,0.00878995\C,0,2.32903395,-0.42390
 597,-0.11678531\C,0,1.3013353,-1.34532541,-0.15793453\N,0,0.09015006,-
 0.66003749,-0.06054935\H,0,-1.88945454,-0.83580049,-0.89805243\H,0,-1.
 82107189,-0.97708705,0.88582703\H,0,-1.50527262,1.62235561,-0.71223412

 Normal termination of Gaussian 16 at Wed Apr  9 18:38:31 2025.
