 Gaussian 16, Revision C.01,

 ----------------------------------------------------------------------
 #t hf aug-cc-pvdz symm=none int=(grid=ultrafine) guess=(read,tcheck) s
 table=(opt,rrhf)
 ----------------------------------------------------------------------
 -----
 title
 -----
 Symbolic Z-matrix:
 Charge =  0 Multiplicity = 1

 SCF Done:  E(RHF) =  -339.763987652     A.U. after   15 cycles
 Normal termination of Gaussian 16 at Wed Apr  9 17:16:34 2025.
 Gaussian 16:  ES64L-G16RevC.01  3-Jul-2019

 ----------------------------------------------------------------------
 #t hf aug-cc-pvdz iop(5/13=1,5/36=2,99/5=2) pseudo=read geom=check gue
 ss=(read,tcheck) scf=(maxcycle=1)
 ----------------------------------------------------------------------
 -----
 title
 -----
 Structure from the checkpoint file:  "Grambow2020_wb97xd3_006549_forward_mol1.chk"
 Charge =  0 Multiplicity = 1

                         Standard orientation:
 ---------------------------------------------------------------------
 Center     Atomic      Atomic             Coordinates (Angstroms)
 Number     Number       Type             X           Y           Z
 ---------------------------------------------------------------------
      1          6           0        0.978306    1.942113    0.036498
      2          7           0        0.057278    1.093073   -0.454374
      3          6           0        0.006822   -0.183861    0.027652
      4          6           0       -1.286755   -0.932064   -0.186719
      5          8           0       -2.395278   -0.118919    0.137425
      6          6           0        1.216519   -0.942719    0.011166
      7          7           0        2.188009   -1.560654    0.015526
      8          1           0        2.002539    1.592134    0.073541
      9          1           0        0.826896    2.993916   -0.169734
     10          1           0        0.698964    1.357432    1.535511
     11          1           0       -0.863978    1.475232   -0.626260
     12          1           0        0.349008    0.528409    1.573319
     13          1           0       -1.259608   -1.852172    0.403849
     14          1           0       -1.421946   -1.215914   -1.233711
     15          1           0       -2.376002    0.044567    1.084441
 ---------------------------------------------------------------------

 SCF Done:  E(RHF) =  -340.115077282     A.U. after    2 cycles

 The electronic state is 1-A.
 Alpha  occ. eigenvalues --  -20.57810 -15.58647 -15.50930 -11.31919 -11.31350
 Alpha  occ. eigenvalues --  -11.31082 -11.27939  -1.48340  -1.32110  -1.23084
 Alpha  occ. eigenvalues --   -1.06569  -0.94873  -0.92188  -0.78403  -0.75048
 Alpha  occ. eigenvalues --   -0.72681  -0.69400  -0.64639  -0.62743  -0.61201
 Alpha  occ. eigenvalues --   -0.60171  -0.54542  -0.52329  -0.50658  -0.47895
 Alpha  occ. eigenvalues --   -0.46819  -0.32963
 Alpha virt. eigenvalues --    0.02873   0.03644   0.04239   0.04399   0.05511
 Alpha virt. eigenvalues --    0.05918   0.06889   0.07521   0.08962   0.09699
 Alpha virt. eigenvalues --    0.11361   0.12274   0.12805   0.13263   0.14919

 Mulliken charges:
               1
     1  C   -0.309461
     2  N    0.859296
     3  C   -0.809265
     4  C    1.088711
     5  O   -1.207251
     6  C   -2.014214
     7  N    1.049187
     8  H    0.080796
     9  H   -0.053394
    10  H    0.150704
    11  H    0.265016
    12  H    0.312019
    13  H    0.156178
    14  H    0.127252
    15  H    0.304427
 Sum of Mulliken charges =   0.00000

 Dipole moment (field-independent basis, Debye):
    X=             -3.2343    Y=              3.4969    Z=              0.1276  Tot=              4.7650

 Test job not archived.
 1\1\GINC-SE103\SP\RHF\Aug-CC-pVDZ\C4H8N2O1\OHZDE\09-Apr-2025\0\\#t hf
 aug-cc-pvdz iop(5/13=1,5/36=2,99/5=2) pseudo=read geom=check guess=(re
 ad,tcheck) scf=(maxcycle=1)\\title\\0,1\C,0,-1.77488196,0.36738367,0.8
 4705797\N,0,-0.51799705,-0.10447596,0.93484404\C,0,0.17783297,-0.35914
 649,-0.21250856\C,0,1.68064067,-0.42676991,-0.08562658\O,0,2.16661982,
 0.64870286,0.69044054\C,0,-0.43937,-1.20519754,-1.18346805\N,0,-0.9314
 7318,-1.87527764,-1.9800126\H,0,-2.45594726,-0.1607587,0.19121808\H,0,
 -2.19546028,0.79703897,1.74720052\H,0,-1.30983479,1.34003578,-0.379564

 Normal termination of Gaussian 16 at Wed Apr  9 17:16:39 2025.
