 Gaussian 16, Revision C.01,

 ----------------------------------------------------------------------
 #t hf aug-cc-pvdz symm=none int=(grid=ultrafine) guess=(read,tcheck) s
 table=(opt,rrhf)
 ----------------------------------------------------------------------
 -----
 title
 -----
 Symbolic Z-matrix:
 Charge =  0 Multiplicity = 1

 SCF Done:  E(RHF) =  -338.658552485     A.U. after   15 cycles
 Normal termination of Gaussian 16 at Wed Apr  9 17:49:31 2025.
 Gaussian 16:  ES64L-G16RevC.01  3-Jul-2019

 ----------------------------------------------------------------------
 #t hf aug-cc-pvdz iop(5/13=1,5/36=2,99/5=2) pseudo=read geom=check gue
 ss=(read,tcheck) scf=(maxcycle=1)
 ----------------------------------------------------------------------
 -----
 title
 -----
 Structure from the checkpoint file:  "Grambow2020_wb97xd3_006836_forward_mol1.chk"
 Charge =  0 Multiplicity = 1

                         Standard orientation:
 ---------------------------------------------------------------------
 Center     Atomic      Atomic             Coordinates (Angstroms)
 Number     Number       Type             X           Y           Z
 ---------------------------------------------------------------------
      1          7           0        2.442673   -0.461014   -0.201629
      2          6           0        1.122246   -0.072854    0.100880
      3          6           0        0.667810    1.302460   -0.023928
      4          7           0       -0.691941    1.132456   -0.033430
      5          6           0       -1.095258   -0.180449   -0.018054
      6          8           0       -2.417825   -0.411850   -0.044838
      7          6           0       -0.016896   -0.989409    0.050556
      8          1           0        3.042849    0.346547   -0.289311
      9          1           0        2.832117   -1.124940    0.450095
     10          1           0        1.060449    0.542280    1.160285
     11          1           0       -1.342424    1.897106    0.010182
     12          1           0       -2.577152   -1.357750   -0.042717
     13          1           0        0.004215   -2.067023    0.058857
 ---------------------------------------------------------------------

 SCF Done:  E(RHF) =  -339.004739100     A.U. after    2 cycles

 The electronic state is 1-A.
 Alpha  occ. eigenvalues --  -20.60831 -15.54149 -15.49921 -11.34999 -11.28874
 Alpha  occ. eigenvalues --  -11.25288 -11.22442  -1.53145  -1.30362  -1.20351
 Alpha  occ. eigenvalues --   -1.05595  -0.99636  -0.84742  -0.81846  -0.76018
 Alpha  occ. eigenvalues --   -0.72003  -0.69493  -0.67162  -0.63268  -0.61041
 Alpha  occ. eigenvalues --   -0.57347  -0.55494  -0.51066  -0.41016  -0.37095
 Alpha  occ. eigenvalues --   -0.34127
 Alpha virt. eigenvalues --    0.02814   0.03657   0.04563   0.05543   0.06207
 Alpha virt. eigenvalues --    0.07165   0.09918   0.10684   0.11703   0.12053
 Alpha virt. eigenvalues --    0.12440   0.13355   0.13931   0.15156   0.15397

 Mulliken charges:
               1
     1  N    0.488970
     2  C   -1.284233
     3  C   -0.751427
     4  N    0.801515
     5  C    0.342187
     6  O   -1.533961
     7  C    0.970556
     8  H    0.169802
     9  H    0.141468
    10  H    0.510258
    11  H    0.009296
    12  H    0.314225
    13  H   -0.178655
 Sum of Mulliken charges =  -0.00000

 Dipole moment (field-independent basis, Debye):
    X=             -1.3116    Y=             -2.7638    Z=              1.5848  Tot=              3.4453

 Test job not archived.
 1\1\GINC-SE113\SP\RHF\Aug-CC-pVDZ\C4H6N2O1\OHZDE\09-Apr-2025\0\\#t hf
 aug-cc-pvdz iop(5/13=1,5/36=2,99/5=2) pseudo=read geom=check guess=(re
 ad,tcheck) scf=(maxcycle=1)\\title\\0,1\N,0,-2.09890565,0.52783005,-0.
 6575959\C,0,-0.87560107,0.01444666,-0.18254649\C,0,-0.41268461,-1.3234
 7473,-0.51307819\N,0,0.91871703,-1.22735915,-0.20316506\C,0,1.31679054
 ,0.02812232,0.18661103\O,0,2.61589385,0.18979132,0.48601036\C,0,0.2531
 4921,0.85888433,0.20872937\H,0,-2.67105635,-0.20895681,-1.04469199\H,0
 ,-2.61470948,1.05495868,0.03036438\H,0,-1.04467335,-0.81730698,0.70297

 Normal termination of Gaussian 16 at Wed Apr  9 17:49:36 2025.
