 Gaussian 16, Revision C.01,

 ----------------------------------------------------------------------
 #t hf aug-cc-pvdz symm=none int=(grid=ultrafine) guess=(read,tcheck) s
 table=(opt,rrhf)
 ----------------------------------------------------------------------
 -----
 title
 -----
 Symbolic Z-matrix:
 Charge =  0 Multiplicity = 1

 SCF Done:  E(RHF) =  -270.035346125     A.U. after   13 cycles

 1\1\GINC-SE115\Stability\RHF\Aug-CC-pVDZ\C5H10O1\OHZDE\09-Apr-2025\0\\
 #t hf aug-cc-pvdz symm=none int=(grid=ultrafine) guess=(read,tcheck) s
 table=(opt,rrhf)\\title\\0,1\C,0,2.35823731,0.36860446,-1.09424173\C,0
 ,0.9088697,0.13011001,-0.77397558\C,0,0.44423403,-0.30593795,0.4095912
 \O,0,-1.28876637,0.19290617,2.01360262\C,0,-1.00061045,-0.5256582,0.79
 532444\C,0,-2.02496277,-0.19573522,-0.2937487\H,0,3.00298682,0.1497946
 1,-0.23254923\H,0,2.52972511,1.41446967,-1.39611431\H,0,2.68546904,-0.
 25987986,-1.93808979\H,0,-1.08235184,1.12868086,1.82462148\H,0,0.20424

 Normal termination of Gaussian 16 at Wed Apr  9 03:09:01 2025.
 Gaussian 16:  ES64L-G16RevC.01  3-Jul-2019

 ----------------------------------------------------------------------
 #t hf aug-cc-pvdz iop(5/13=1,5/36=2,99/5=2) pseudo=read geom=check gue
 ss=(read,tcheck) scf=(maxcycle=1)
 ----------------------------------------------------------------------
 -----
 title
 -----
 Structure from the checkpoint file:  "Grambow2020_b97d3_006621_reverse_mol2.chk"
 Charge =  0 Multiplicity = 1

                         Standard orientation:
 ---------------------------------------------------------------------
 Center     Atomic      Atomic             Coordinates (Angstroms)
 Number     Number       Type             X           Y           Z
 ---------------------------------------------------------------------
      1          6           0        2.799994   -0.086620    0.124693
      2          6           0        1.356761    0.328508    0.054944
      3          6           0        0.347875   -0.461401   -0.351313
      4          8           0       -1.882322   -1.101879    0.312764
      5          6           0       -1.120647   -0.107500   -0.404615
      6          6           0       -1.470176    1.304337    0.073686
      7          1           0        2.935439   -1.129481   -0.191834
      8          1           0        3.192057    0.016121    1.149437
      9          1           0        3.426958    0.552764   -0.517379
     10          1           0       -1.523586   -1.106142    1.221216
     11          1           0        1.143797    1.357809    0.357786
     12          1           0        0.566221   -1.490524   -0.654297
     13          1           0       -1.470251   -0.222689   -1.442773
     14          1           0       -1.142112    1.458449    1.112562
     15          1           0       -2.557539    1.442842    0.031995
     16          1           0       -0.995247    2.071940   -0.553198
 ---------------------------------------------------------------------

 SCF Done:  E(RHF) =  -270.324667375     A.U. after    2 cycles

 The electronic state is 1-A.
 Alpha  occ. eigenvalues --  -20.54493 -11.29288 -11.24797 -11.23957 -11.23662
 Alpha  occ. eigenvalues --  -11.22993  -1.43641  -1.08592  -1.01302  -0.93539
 Alpha  occ. eigenvalues --   -0.85030  -0.74944  -0.68569  -0.63339  -0.62369
 Alpha  occ. eigenvalues --   -0.59526  -0.57411  -0.56179  -0.53573  -0.52705
 Alpha  occ. eigenvalues --   -0.50691  -0.48081  -0.44264  -0.36316
 Alpha virt. eigenvalues --    0.03471   0.03880   0.03968   0.04349   0.05965
 Alpha virt. eigenvalues --    0.06161   0.06438   0.07296   0.08398   0.09455
 Alpha virt. eigenvalues --    0.11313   0.12615   0.14076   0.14428   0.15172

 Mulliken charges:
               1
     1  C   -0.907368
     2  C    0.346368
     3  C    0.564543
     4  O   -1.338523
     5  C    0.440073
     6  C   -0.285221
     7  H    0.125230
     8  H    0.246865
     9  H    0.253398
    10  H    0.342096
    11  H   -0.242344
    12  H   -0.231477
    13  H    0.145252
    14  H    0.196752
    15  H    0.104771
    16  H    0.239584
 Sum of Mulliken charges =  -0.00000

 Dipole moment (field-independent basis, Debye):
    X=              1.6097    Y=              1.1702    Z=              0.5356  Tot=              2.0609

 Test job not archived.
 1\1\GINC-SE115\SP\RHF\Aug-CC-pVDZ\C5H10O1\OHZDE\09-Apr-2025\0\\#t hf a
 ug-cc-pvdz iop(5/13=1,5/36=2,99/5=2) pseudo=read geom=check guess=(rea
 d,tcheck) scf=(maxcycle=1)\\title\\0,1\C,0,2.35823731,0.36860446,-1.09
 424173\C,0,0.9088697,0.13011001,-0.77397558\C,0,0.44423403,-0.30593795
 ,0.4095912\O,0,-1.28876637,0.19290617,2.01360262\C,0,-1.00061045,-0.52
 56582,0.79532444\C,0,-2.02496277,-0.19573522,-0.2937487\H,0,3.00298682
 ,0.14979461,-0.23254923\H,0,2.52972511,1.41446967,-1.39611431\H,0,2.68
 546904,-0.25987986,-1.93808979\H,0,-1.08235184,1.12868086,1.82462148\H

 Normal termination of Gaussian 16 at Wed Apr  9 03:09:06 2025.
