 Gaussian 16, Revision C.01,

 ----------------------------------------------------------------------
 #t hf aug-cc-pvdz symm=none int=(grid=ultrafine) guess=(read,tcheck) s
 table=(opt,rrhf)
 ----------------------------------------------------------------------
 -----
 title
 -----
 Symbolic Z-matrix:
 Charge =  0 Multiplicity = 1

 SCF Done:  E(RHF) =  -301.882364442     A.U. after   16 cycles
 Normal termination of Gaussian 16 at Wed Apr  9 03:15:03 2025.
 Gaussian 16:  ES64L-G16RevC.01  3-Jul-2019

 ----------------------------------------------------------------------
 #t hf aug-cc-pvdz iop(5/13=1,5/36=2,99/5=2) pseudo=read geom=check gue
 ss=(read,tcheck) scf=(maxcycle=1)
 ----------------------------------------------------------------------
 -----
 title
 -----
 Structure from the checkpoint file:  "Grambow2020_b97d3_006937_forward_mol1.chk"
 Charge =  0 Multiplicity = 1

                         Standard orientation:
 ---------------------------------------------------------------------
 Center     Atomic      Atomic             Coordinates (Angstroms)
 Number     Number       Type             X           Y           Z
 ---------------------------------------------------------------------
      1          6           0       -2.224934   -0.345480    0.281177
      2          7           0       -0.939048   -0.642964   -0.360738
      3          6           0        0.068970    0.359086   -0.022433
      4          8           0       -0.142332    1.571719   -0.114576
      5          7           0        1.407640   -0.250062   -0.631390
      6          6           0        2.065835   -0.370083    0.538743
      7          1           0       -2.175853   -0.321314    1.385360
      8          1           0       -2.944872   -1.114122   -0.029822
      9          1           0       -2.566607    0.632389   -0.072335
     10          1           0       -0.624149   -1.571454   -0.066493
     11          1           0        1.294211   -1.087686   -1.198654
     12          1           0        0.432639   -0.018163    1.222055
     13          1           0        2.666647   -1.255407    0.776184
     14          1           0        2.317272    0.552051    1.060291
 ---------------------------------------------------------------------

 SCF Done:  E(RHF) =  -302.195926208     A.U. after    2 cycles

 The electronic state is 1-A.
 Alpha  occ. eigenvalues --  -20.46586 -15.54854 -15.50729 -11.39952 -11.38378
 Alpha  occ. eigenvalues --  -11.25124  -1.41780  -1.27808  -1.19488  -0.95656
 Alpha  occ. eigenvalues --   -0.91957  -0.83011  -0.76550  -0.71345  -0.68620
 Alpha  occ. eigenvalues --   -0.64103  -0.61534  -0.58868  -0.56973  -0.53422
 Alpha  occ. eigenvalues --   -0.49533  -0.43136  -0.40017  -0.33846
 Alpha virt. eigenvalues --    0.00987   0.02069   0.03832   0.04458   0.05279
 Alpha virt. eigenvalues --    0.05855   0.05965   0.08074   0.08502   0.10710
 Alpha virt. eigenvalues --    0.11736   0.13128   0.13421   0.14380   0.14971

 Mulliken charges:
               1
     1  C   -0.422310
     2  N    0.220109
     3  C    0.109397
     4  O   -1.372831
     5  N    0.380109
     6  C   -0.208632
     7  H    0.170315
     8  H    0.064523
     9  H    0.146382
    10  H    0.247444
    11  H    0.169231
    12  H    0.285560
    13  H    0.081485
    14  H    0.129217
 Sum of Mulliken charges =   0.00000

 Dipole moment (field-independent basis, Debye):
    X=              3.4669    Y=             -5.4887    Z=              2.2409  Tot=              6.8678

 Test job not archived.
 1\1\GINC-SE336\SP\RHF\Aug-CC-pVDZ\C3H8N2O1\OHZDE\09-Apr-2025\0\\#t hf
 aug-cc-pvdz iop(5/13=1,5/36=2,99/5=2) pseudo=read geom=check guess=(re
 ad,tcheck) scf=(maxcycle=1)\\title\\0,1\C,0,-2.03310192,0.54473204,0.3
 9035359\N,0,-0.92662804,-0.41892125,0.35656778\C,0,0.05028321,-0.07152
 828,-0.67281007\O,0,-0.27354625,0.19229747,-1.83433844\N,0,1.24081178,
 -1.09390832,-0.40577567\C,0,2.17563428,-0.16651046,-0.11789073\H,0,-1.
 71427705,1.58067011,0.60805867\H,0,-2.74376229,0.2179516,1.16107938\H,
 0,-2.52874392,0.5321556,-0.58541271\H,0,-0.4754607,-0.44391257,1.27507

 Normal termination of Gaussian 16 at Wed Apr  9 03:15:07 2025.
