 Gaussian 16, Revision C.01,

 ----------------------------------------------------------------------
 #t hf aug-cc-pvdz symm=none int=(grid=ultrafine) guess=(read,tcheck) s
 table=(opt,rrhf)
 ----------------------------------------------------------------------
 -----
 title
 -----
 Symbolic Z-matrix:
 Charge =  0 Multiplicity = 1

 SCF Done:  E(RHF) =  -283.573142709     A.U. after   14 cycles
 Normal termination of Gaussian 16 at Wed Apr  9 17:02:10 2025.
 Gaussian 16:  ES64L-G16RevC.01  3-Jul-2019

 ----------------------------------------------------------------------
 #t hf aug-cc-pvdz iop(5/13=1,5/36=2,99/5=2) pseudo=read geom=check gue
 ss=(read,tcheck) scf=(maxcycle=1)
 ----------------------------------------------------------------------
 -----
 title
 -----
 Structure from the checkpoint file:  "Grambow2020_wb97xd3_006227_reverse_mol2.chk"
 Charge =  0 Multiplicity = 1

                         Standard orientation:
 ---------------------------------------------------------------------
 Center     Atomic      Atomic             Coordinates (Angstroms)
 Number     Number       Type             X           Y           Z
 ---------------------------------------------------------------------
      1          8           0       -1.428434   -0.056684   -0.763302
      2          6           0       -0.279733    0.001026   -0.000554
      3          6           0        0.829300   -1.061117    0.048710
      4          6           0        1.751956    0.146192    0.024107
      5          6           0        0.778581    1.054822   -0.047896
      6          7           0       -1.509791   -0.042462    0.709711
      7          1           0        0.866580   -1.700159   -0.834295
      8          1           0        0.843647   -1.672950    0.951407
      9          1           0        2.830563    0.224708    0.056304
     10          1           0        0.749956    2.134639   -0.111003
     11          1           0       -1.775361    0.918934    0.929822
 ---------------------------------------------------------------------

 SCF Done:  E(RHF) =  -283.863819738     A.U. after    2 cycles

 The electronic state is 1-A.
 Alpha  occ. eigenvalues --  -20.58626 -15.56525 -11.33911 -11.26942 -11.25567
 Alpha  occ. eigenvalues --  -11.25321  -1.54209  -1.18094  -1.08939  -0.93234
 Alpha  occ. eigenvalues --   -0.87156  -0.77215  -0.72458  -0.69847  -0.63291
 Alpha  occ. eigenvalues --   -0.60499  -0.56548  -0.52469  -0.50482  -0.48677
 Alpha  occ. eigenvalues --   -0.45068  -0.38772
 Alpha virt. eigenvalues --    0.03243   0.03679   0.04521   0.05200   0.06133
 Alpha virt. eigenvalues --    0.09109   0.10032   0.11644   0.11935   0.12343
 Alpha virt. eigenvalues --    0.13562   0.14013   0.15082   0.15659   0.16386

 Mulliken charges:
               1
     1  O   -1.408585
     2  C    0.549942
     3  C   -0.681605
     4  C    0.555693
     5  C   -0.250123
     6  N    0.730725
     7  H    0.191898
     8  H    0.175373
     9  H   -0.071757
    10  H   -0.090855
    11  H    0.299293
 Sum of Mulliken charges =  -0.00000

 Dipole moment (field-independent basis, Debye):
    X=              2.7579    Y=              1.3765    Z=              0.5034  Tot=              3.1232

 Test job not archived.
 1\1\GINC-SE173\SP\RHF\Aug-CC-pVDZ\C4H5N1O1\OHZDE\09-Apr-2025\0\\#t hf
 aug-cc-pvdz iop(5/13=1,5/36=2,99/5=2) pseudo=read geom=check guess=(re
 ad,tcheck) scf=(maxcycle=1)\\title\\0,1\O,0,-0.14549223,1.82640526,-0.
 68867111\C,0,-0.03241716,0.61777885,-0.03211511\C,0,-1.02437519,-0.552
 771,-0.11187028\C,0,0.23819434,-1.39514136,-0.18819583\C,0,1.08587417,
 -0.36653581,-0.14745561\N,0,-0.16707042,1.77224,0.78550208\H,0,-1.6413
 1362,-0.54669983,-1.01120976\H,0,-1.65282191,-0.68699851,0.7692904\H,0
 ,0.38290595,-2.46545998,-0.25200108\H,0,2.1629057,-0.26749659,-0.17911

 Normal termination of Gaussian 16 at Wed Apr  9 17:02:15 2025.
