 Gaussian 16, Revision C.01,

 ----------------------------------------------------------------------
 #t hf aug-cc-pvdz symm=none int=(grid=ultrafine) guess=(read,tcheck) s
 table=(opt,rrhf)
 ----------------------------------------------------------------------
 -----
 title
 -----
 Symbolic Z-matrix:
 Charge =  0 Multiplicity = 1

 SCF Done:  E(RHF) =  -281.211731287     A.U. after   17 cycles
 Normal termination of Gaussian 16 at Wed Apr  9 03:05:36 2025.
 Gaussian 16:  ES64L-G16RevC.01  3-Jul-2019

 ----------------------------------------------------------------------
 #t hf aug-cc-pvdz iop(5/13=1,5/36=2,99/5=2) pseudo=read geom=check gue
 ss=(read,tcheck) scf=(maxcycle=1)
 ----------------------------------------------------------------------
 -----
 title
 -----
 Structure from the checkpoint file:  "Grambow2020_b97d3_006501_forward_mol1.chk"
 Charge =  0 Multiplicity = 1

                         Standard orientation:
 ---------------------------------------------------------------------
 Center     Atomic      Atomic             Coordinates (Angstroms)
 Number     Number       Type             X           Y           Z
 ---------------------------------------------------------------------
      1          8           0       -0.669224    1.553425   -0.000761
      2          6           0       -0.215574    0.451979    0.008139
      3          6           0        1.119874   -0.009318    0.000988
      4          6           0        2.285580   -0.360803   -0.002994
      5          6           0       -1.301792   -0.948412    0.646773
      6          7           0       -1.326824   -0.937555   -0.555776
      7          1           0        3.313029   -0.665193   -0.020906
 ---------------------------------------------------------------------

 SCF Done:  E(RHF) =  -281.477293265     A.U. after    2 cycles

 The electronic state is 1-A.
 Alpha  occ. eigenvalues --  -20.63281 -15.56926 -11.48339 -11.33101 -11.31314
 Alpha  occ. eigenvalues --  -11.31029  -1.56500  -1.29301  -1.11317  -0.96523
 Alpha  occ. eigenvalues --   -0.78693  -0.75152  -0.72151  -0.70427  -0.61607
 Alpha  occ. eigenvalues --   -0.55369  -0.50821  -0.50002  -0.46791  -0.46750
 Alpha virt. eigenvalues --    0.00168   0.02396   0.06383   0.07747   0.08282
 Alpha virt. eigenvalues --    0.08520   0.09005   0.09817   0.11069   0.11674
 Alpha virt. eigenvalues --    0.12476   0.13525   0.13771   0.15062   0.16320

 Mulliken charges:
               1
     1  O   -1.157858
     2  C    0.887307
     3  C    0.538730
     4  C    0.220726
     5  C   -0.500465
     6  N    0.302597
     7  H   -0.291037
 Sum of Mulliken charges =   0.00000

 Dipole moment (field-independent basis, Debye):
    X=              4.1767    Y=             -0.2967    Z=              0.3647  Tot=              4.2031

 Test job not archived.
 1\1\GINC-SE186\SP\RHF\Aug-CC-pVDZ\C4H1N1O1\OHZDE\09-Apr-2025\0\\#t hf
 aug-cc-pvdz iop(5/13=1,5/36=2,99/5=2) pseudo=read geom=check guess=(re
 ad,tcheck) scf=(maxcycle=1)\\title\\0,1\O,0,-1.09190563,-1.05970943,1.
 33533241\C,0,-0.66066929,-0.38239813,0.45536286\C,0,0.66386957,-0.0405
 841,0.10176974\C,0,1.8211776,0.22509518,-0.16745365\C,0,-1.74941377,-0
 .09254058,-1.05441603\N,0,-1.82092217,0.85722318,-0.31977123\H,0,2.840
 77469,0.46746586,-0.3917381\\Version=ES64L-G16RevC.01\State=1-A\HF=-28
 1.4772933\RMSD=2.019e-02\Dipole=1.6448705,0.027206,-0.1676528\Quadrupo

 Normal termination of Gaussian 16 at Wed Apr  9 03:05:38 2025.
