 Gaussian 16, Revision C.01,

 ----------------------------------------------------------------------
 #t hf aug-cc-pvdz symm=none int=(grid=ultrafine) guess=(read,tcheck) s
 table=(opt,rrhf)
 ----------------------------------------------------------------------
 -----
 title
 -----
 Symbolic Z-matrix:
 Charge =  0 Multiplicity = 1

 SCF Done:  E(RHF) =  -343.601545603     A.U. after   15 cycles
 Normal termination of Gaussian 16 at Wed Apr  9 18:09:46 2025.
 Gaussian 16:  ES64L-G16RevC.01  3-Jul-2019

 ----------------------------------------------------------------------
 #t hf aug-cc-pvdz iop(5/13=1,5/36=2,99/5=2) pseudo=read geom=check gue
 ss=(read,tcheck) scf=(maxcycle=1)
 ----------------------------------------------------------------------
 -----
 title
 -----
 Structure from the checkpoint file:  "Grambow2020_wb97xd3_007148_forward_mol1.chk"
 Charge =  0 Multiplicity = 1

                         Standard orientation:
 ---------------------------------------------------------------------
 Center     Atomic      Atomic             Coordinates (Angstroms)
 Number     Number       Type             X           Y           Z
 ---------------------------------------------------------------------
      1          8           0        0.097271   -1.124290   -0.838648
      2          6           0        0.611827    0.085038   -0.148078
      3          6           0       -0.514376    1.001383   -0.459134
      4          6           0       -1.749263    0.586678    0.102597
      5          8           0       -1.943972   -0.557200    0.558327
      6          6           0        2.066079    0.328973   -0.205608
      7          6           0        1.411045   -0.120343    1.084081
      8          1           0       -0.671200   -1.342266   -0.213868
      9          1           0       -0.352166    2.033393   -0.737711
     10          1           0       -0.498675   -0.240366   -1.368743
     11          1           0       -2.596238    1.289987    0.061223
     12          1           0        2.392423    1.356608   -0.297920
     13          1           0        2.672564   -0.396739   -0.730757
     14          1           0        1.599020   -1.135950    1.405475
     15          1           0        1.276009    0.596873    1.881717
 ---------------------------------------------------------------------

 SCF Done:  E(RHF) =  -343.957045096     A.U. after    2 cycles

 The electronic state is 1-A.
 Alpha  occ. eigenvalues --  -20.62286 -20.51176 -11.32625 -11.32539 -11.25558
 Alpha  occ. eigenvalues --  -11.25365 -11.21612  -1.53461  -1.43894  -1.17175
 Alpha  occ. eigenvalues --   -1.03036  -0.86234  -0.84599  -0.78050  -0.73616
 Alpha  occ. eigenvalues --   -0.70312  -0.68851  -0.64459  -0.63579  -0.59737
 Alpha  occ. eigenvalues --   -0.55062  -0.54039  -0.51897  -0.47140  -0.45728
 Alpha  occ. eigenvalues --   -0.40667  -0.33478
 Alpha virt. eigenvalues --    0.03351   0.03693   0.04273   0.04574   0.06028
 Alpha virt. eigenvalues --    0.06207   0.07016   0.07628   0.10085   0.11587
 Alpha virt. eigenvalues --    0.12145   0.12954   0.13751   0.14085   0.14677

 Mulliken charges:
               1
     1  O   -1.524197
     2  C    1.375576
     3  C   -0.840575
     4  C    1.129161
     5  O   -1.414980
     6  C    0.117757
     7  C   -0.106463
     8  H    0.602387
     9  H   -0.214787
    10  H    0.932665
    11  H    0.070716
    12  H   -0.041615
    13  H    0.000297
    14  H   -0.025588
    15  H   -0.060355
 Sum of Mulliken charges =  -0.00000

 Dipole moment (field-independent basis, Debye):
    X=              2.3104    Y=              1.2994    Z=             -0.5815  Tot=              2.7138

 Test job not archived.
 1\1\GINC-SE232\SP\RHF\Aug-CC-pVDZ\C5H8O2\OHZDE\09-Apr-2025\0\\#t hf au
 g-cc-pvdz iop(5/13=1,5/36=2,99/5=2) pseudo=read geom=check guess=(read
 ,tcheck) scf=(maxcycle=1)\\title\\0,1\O,0,0.26111939,-0.86166807,-1.19
 103203\C,0,-0.33428668,-0.20624174,0.0006211\C,0,0.82777878,-0.3357117
 1,0.91583634\C,0,1.97529316,0.37057272,0.47216862\O,0,2.1021831,0.8106
 1267,-0.68728062\C,0,-1.76686488,-0.44757492,0.25973521\C,0,-1.2906743
 ,0.90209991,-0.23611946\H,0,0.93896894,-0.14819081,-1.43574002\H,0,0.7
 0907671,-0.5995889,1.95758523\H,0,0.92645216,-1.27929749,-0.2963867\H,

 Normal termination of Gaussian 16 at Wed Apr  9 18:09:51 2025.
