 Gaussian 16, Revision C.01,

 ----------------------------------------------------------------------
 #t hf aug-cc-pvdz symm=none int=(grid=ultrafine) guess=(read,tcheck) s
 table=(opt,rrhf)
 ----------------------------------------------------------------------
 -----
 title
 -----
 Symbolic Z-matrix:
 Charge =  0 Multiplicity = 1

 SCF Done:  E(RHF) =  -234.130922833     A.U. after   13 cycles
 Normal termination of Gaussian 16 at Wed Apr  9 15:50:04 2025.
 Gaussian 16:  ES64L-G16RevC.01  3-Jul-2019

 ----------------------------------------------------------------------
 #t hf aug-cc-pvdz iop(5/13=1,5/36=2,99/5=2) pseudo=read geom=check gue
 ss=(read,tcheck) scf=(maxcycle=1)
 ----------------------------------------------------------------------
 -----
 title
 -----
 Structure from the checkpoint file:  "Grambow2020_b97d3_006793_reverse_mol2.chk"
 Charge =  0 Multiplicity = 1

                         Standard orientation:
 ---------------------------------------------------------------------
 Center     Atomic      Atomic             Coordinates (Angstroms)
 Number     Number       Type             X           Y           Z
 ---------------------------------------------------------------------
      1          6           0        2.216213    0.771734    0.196074
      2          6           0        1.088922   -0.015615   -0.439635
      3          6           0        0.786715   -1.417311    0.006822
      4          6           0       -1.498857   -0.221696   -0.307831
      5          6           0       -2.624557    0.260305    0.247744
      6          6           0       -0.181589   -0.292906    0.354691
      7          1           0        2.311200    0.524852    1.263588
      8          1           0        2.040599    1.853809    0.113567
      9          1           0        3.178254    0.542377   -0.286207
     10          1           0        0.928276    0.191073   -1.500277
     11          1           0        1.378707   -1.834558    0.822180
     12          1           0        0.463152   -2.146417   -0.736385
     13          1           0       -1.529209   -0.591740   -1.338637
     14          1           0       -2.638400    0.638409    1.271968
     15          1           0       -0.742642    2.664350   -0.489002
     16          1           0       -3.564916    0.290898   -0.302302
     17          1           0       -0.378619    3.312329   -0.557845
     18          1           0       -0.167478    0.047548    1.392165
 ---------------------------------------------------------------------

 SCF Done:  E(RHF) =  -234.392369950     A.U. after    2 cycles

 The electronic state is 1-A.
 Alpha  occ. eigenvalues --  -11.24671 -11.24298 -11.24105 -11.23672 -11.23139
 Alpha  occ. eigenvalues --  -11.22954  -1.15814  -1.03614  -0.96186  -0.84614
 Alpha  occ. eigenvalues --   -0.78854  -0.76475  -0.66303  -0.64751  -0.59797
 Alpha  occ. eigenvalues --   -0.58691  -0.57156  -0.56326  -0.54229  -0.50923
 Alpha  occ. eigenvalues --   -0.49554  -0.45849  -0.42096  -0.34135
 Alpha virt. eigenvalues --    0.03480   0.03699   0.04073   0.04385   0.05727
 Alpha virt. eigenvalues --    0.06090   0.06483   0.06876   0.08246   0.08811
 Alpha virt. eigenvalues --    0.09365   0.10620   0.11363   0.13095   0.14464

 Mulliken charges:
               1
     1  C   -0.626273
     2  C    0.220991
     3  C    0.350211
     4  C    0.435132
     5  C   -0.067456
     6  C    0.381778
     7  H    0.134448
     8  H    0.183321
     9  H    0.215986
    10  H   -0.220245
    11  H   -0.124565
    12  H   -0.149476
    13  H   -0.219887
    14  H   -0.094502
    15  H   -0.013866
    16  H   -0.126293
    17  H    0.026742
    18  H   -0.306047
 Sum of Mulliken charges =  -0.00000

 Dipole moment (field-independent basis, Debye):
    X=              0.6583    Y=             -0.1223    Z=             -0.0816  Tot=              0.6745

 Test job not archived.
 1\1\GINC-SE138\SP\RHF\Aug-CC-pVDZ\C6H12\OHZDE\09-Apr-2025\0\\#t hf aug
 -cc-pvdz iop(5/13=1,5/36=2,99/5=2) pseudo=read geom=check guess=(read,
 tcheck) scf=(maxcycle=1)\\title\\0,1\C,0,-2.20360349,-0.32327158,0.089
 78961\C,0,-0.98766388,0.52185472,-0.2297097\C,0,-0.49947778,1.55930129
 ,0.74022967\C,0,1.60569876,0.35113777,-0.18762497\C,0,2.66259039,-0.44
 723207,0.04426772\C,0,0.31492342,0.28896302,0.52598243\H,0,-2.25626,-0
 .54006274,1.16672459\H,0,-2.17295463,-1.28211555,-0.44706504\H,0,-3.13
 098565,0.19797636,-0.19125567\H,0,-0.86456461,0.76427503,-1.28780632\H

 Normal termination of Gaussian 16 at Wed Apr  9 15:50:10 2025.
