 Gaussian 16, Revision C.01,

 ----------------------------------------------------------------------
 #t hf aug-cc-pvdz symm=none int=(grid=ultrafine) guess=(read,tcheck) s
 table=(opt,rrhf)
 ----------------------------------------------------------------------
 -----
 title
 -----
 Symbolic Z-matrix:
 Charge =  0 Multiplicity = 1

 SCF Done:  E(RHF) =  -284.728179291     A.U. after   15 cycles
 Normal termination of Gaussian 16 at Wed Apr  9 17:07:15 2025.
 Gaussian 16:  ES64L-G16RevC.01  3-Jul-2019

 ----------------------------------------------------------------------
 #t hf aug-cc-pvdz iop(5/13=1,5/36=2,99/5=2) pseudo=read geom=check gue
 ss=(read,tcheck) scf=(maxcycle=1)
 ----------------------------------------------------------------------
 -----
 title
 -----
 Structure from the checkpoint file:  "Grambow2020_wb97xd3_006246_forward_mol1.chk"
 Charge =  0 Multiplicity = 1

                         Standard orientation:
 ---------------------------------------------------------------------
 Center     Atomic      Atomic             Coordinates (Angstroms)
 Number     Number       Type             X           Y           Z
 ---------------------------------------------------------------------
      1          8           0       -2.217047   -0.446797    0.020834
      2          6           0       -1.388278    0.431040    0.025749
      3          7           0       -0.054621    0.223453    0.045824
      4          6           0        0.571529   -1.072517   -0.077437
      5          6           0        2.049029   -0.666818   -0.061321
      6          6           0        0.943031    1.265584   -0.034931
      7          1           0       -1.643805    1.508977    0.017846
      8          1           0        0.312740   -1.734192    0.755756
      9          1           0        0.273385   -1.562426   -1.007793
     10          1           0        2.304478   -0.460741    0.991378
     11          1           0        1.900593    0.755172   -0.477991
     12          1           0        0.728789    2.021887   -0.794307
     13          1           0        1.190672    1.737791    0.915314
 ---------------------------------------------------------------------

 SCF Done:  E(RHF) =  -285.018575404     A.U. after    2 cycles

 The electronic state is 1-A.
 Alpha  occ. eigenvalues --  -20.52278 -15.54477 -11.36428 -11.32144 -11.29111
 Alpha  occ. eigenvalues --  -11.28628  -1.47192  -1.29202  -1.05115  -1.00709
 Alpha  occ. eigenvalues --   -0.85868  -0.78789  -0.74140  -0.71045  -0.68500
 Alpha  occ. eigenvalues --   -0.61409  -0.61214  -0.58102  -0.56232  -0.53121
 Alpha  occ. eigenvalues --   -0.44024  -0.42078  -0.36928
 Alpha virt. eigenvalues --    0.02733   0.03664   0.04289   0.04534   0.05749
 Alpha virt. eigenvalues --    0.05964   0.07044   0.07890   0.09452   0.09972
 Alpha virt. eigenvalues --    0.12114   0.13122   0.14266   0.14835   0.15235

 Mulliken charges:
               1
     1  O   -1.071287
     2  C    0.586701
     3  N    0.594704
     4  C   -0.181013
     5  C   -0.485783
     6  C   -0.452614
     7  H    0.103716
     8  H    0.052188
     9  H    0.067393
    10  H    0.244553
    11  H    0.372407
    12  H    0.057343
    13  H    0.111692
 Sum of Mulliken charges =  -0.00000

 Dipole moment (field-independent basis, Debye):
    X=              1.8792    Y=              2.8848    Z=              0.9701  Tot=              3.5770

 Test job not archived.
 1\1\GINC-SE103\SP\RHF\Aug-CC-pVDZ\C4H7N1O1\OHZDE\09-Apr-2025\0\\#t hf
 aug-cc-pvdz iop(5/13=1,5/36=2,99/5=2) pseudo=read geom=check guess=(re
 ad,tcheck) scf=(maxcycle=1)\\title\\0,1\O,0,2.22658345,1.31309111,-0.8
 597817\C,0,1.73658555,0.23677819,-0.61702088\N,0,0.45740859,0.04893682
 ,-0.22900297\C,0,-0.54325568,1.08985889,-0.18487697\C,0,-1.76824294,0.
 27579191,0.24472713\C,0,-0.15959775,-1.24085106,-0.02015774\H,0,2.2970
 5728,-0.71632561,-0.68608686\H,0,-0.28963861,1.87250288,0.53771809\H,0
 ,-0.66339874,1.55671466,-1.16573141\H,0,-1.66346126,0.10300386,1.32872

 Normal termination of Gaussian 16 at Wed Apr  9 17:07:19 2025.
