 Gaussian 16, Revision C.01,

 ----------------------------------------------------------------------
 #t hf aug-cc-pvdz symm=none int=(grid=ultrafine) guess=(read,tcheck) s
 table=(opt,rrhf)
 ----------------------------------------------------------------------
 -----
 title
 -----
 Symbolic Z-matrix:
 Charge =  0 Multiplicity = 1

 SCF Done:  E(RHF) =  -360.677356934     A.U. after   17 cycles
 Normal termination of Gaussian 16 at Wed Apr  9 17:41:02 2025.
 Gaussian 16:  ES64L-G16RevC.01  3-Jul-2019

 ----------------------------------------------------------------------
 #t hf aug-cc-pvdz iop(5/13=1,5/36=2,99/5=2) pseudo=read geom=check gue
 ss=(read,tcheck) scf=(maxcycle=1)
 ----------------------------------------------------------------------
 -----
 title
 -----
 Structure from the checkpoint file:  "Grambow2020_wb97xd3_006762_forward_mol1.chk"
 Charge =  0 Multiplicity = 1

                         Standard orientation:
 ---------------------------------------------------------------------
 Center     Atomic      Atomic             Coordinates (Angstroms)
 Number     Number       Type             X           Y           Z
 ---------------------------------------------------------------------
      1          6           0        1.902224   -0.785726    0.500713
      2          7           0        1.365865   -0.379252   -0.604488
      3          6           0        0.809992    0.809331   -0.799347
      4          8           0       -0.079785    1.389010   -0.048213
      5          6           0       -0.896319    0.743861    0.823596
      6          6           0       -1.342100   -0.637100    0.462945
      7          8           0       -1.579957   -0.805406   -0.924819
      8          1           0        0.669907   -0.399959    2.244015
      9          1           0        2.234126   -1.816209    0.567419
     10          1           0        2.219915   -0.098245    1.275383
     11          1           0        1.032430    1.366906   -1.699467
     12          1           0        0.082546    0.146460    2.036176
     13          1           0       -1.638335    1.449518    1.173775
     14          1           0       -0.629634   -1.400823    0.810620
     15          1           0       -2.282407   -0.807659    0.991968
     16          1           0       -0.814453   -1.236260   -1.311661
 ---------------------------------------------------------------------

 SCF Done:  E(RHF) =  -361.047867651     A.U. after    2 cycles

 The electronic state is 1-A.
 Alpha  occ. eigenvalues --  -20.65274 -20.54132 -15.54297 -11.38074 -11.33645
 Alpha  occ. eigenvalues --  -11.27962 -11.26261  -1.58450  -1.44343  -1.28473
 Alpha  occ. eigenvalues --   -1.04811  -0.98510  -0.90752  -0.79268  -0.76919
 Alpha  occ. eigenvalues --   -0.72268  -0.70533  -0.69813  -0.64648  -0.62580
 Alpha  occ. eigenvalues --   -0.58457  -0.57550  -0.56182  -0.51653  -0.48807
 Alpha  occ. eigenvalues --   -0.46650  -0.43930  -0.25236
 Alpha virt. eigenvalues --    0.02901   0.04038   0.04241   0.04749   0.05139
 Alpha virt. eigenvalues --    0.05986   0.06250   0.07347   0.07935   0.08883
 Alpha virt. eigenvalues --    0.10099   0.11152   0.12564   0.13782   0.14376

 Mulliken charges:
               1
     1  C   -0.366393
     2  N    0.731495
     3  C    0.406470
     4  O   -1.137915
     5  C    0.248536
     6  C    0.708033
     7  O   -1.172645
     8  H   -0.345152
     9  H   -0.017381
    10  H    0.066506
    11  H   -0.061245
    12  H    0.594886
    13  H   -0.115770
    14  H    0.063332
    15  H    0.021466
    16  H    0.375779
 Sum of Mulliken charges =  -0.00000

 Dipole moment (field-independent basis, Debye):
    X=              2.5739    Y=              0.1779    Z=              0.1771  Tot=              2.5861

 Test job not archived.
 1\1\GINC-SE135\SP\RHF\Aug-CC-pVDZ\C4H9N1O2\OHZDE\09-Apr-2025\0\\#t hf
 aug-cc-pvdz iop(5/13=1,5/36=2,99/5=2) pseudo=read geom=check guess=(re
 ad,tcheck) scf=(maxcycle=1)\\title\\0,1\C,0,1.35107509,0.48595072,-1.4
 1094748\N,0,1.20642785,1.04274225,-0.25188238\C,0,1.18616577,0.4056698
 7,0.91148512\O,0,0.46960417,-0.63492197,1.22074619\C,0,-0.66657248,-1.
 01108019,0.5799644\C,0,-1.53531693,0.06878065,0.01869081\O,0,-1.578937
 42,1.23172113,0.8289111\H,0,0.08025392,-1.24962852,-1.69255019\H,0,1.2
 4968152,1.10182865,-2.29803133\H,0,1.76916114,-0.50678692,-1.52646812\

 Normal termination of Gaussian 16 at Wed Apr  9 17:41:09 2025.
