 Gaussian 16, Revision C.01,

 ----------------------------------------------------------------------
 #t hf aug-cc-pvdz symm=none int=(grid=ultrafine) guess=(read,tcheck) s
 table=(opt,rrhf)
 ----------------------------------------------------------------------
 -----
 title
 -----
 Symbolic Z-matrix:
 Charge =  0 Multiplicity = 1

 SCF Done:  E(RHF) =  -338.525530458     A.U. after   16 cycles
 Normal termination of Gaussian 16 at Wed Apr  9 19:05:51 2025.
 Gaussian 16:  ES64L-G16RevC.01  3-Jul-2019

 ----------------------------------------------------------------------
 #t hf aug-cc-pvdz iop(5/13=1,5/36=2,99/5=2) pseudo=read geom=check gue
 ss=(read,tcheck) scf=(maxcycle=1)
 ----------------------------------------------------------------------
 -----
 title
 -----
 Structure from the checkpoint file:  "Grambow2020_wb97xd3_008549_reverse_mol1.chk"
 Charge =  0 Multiplicity = 1

                         Standard orientation:
 ---------------------------------------------------------------------
 Center     Atomic      Atomic             Coordinates (Angstroms)
 Number     Number       Type             X           Y           Z
 ---------------------------------------------------------------------
      1          6           0        2.354071    0.120902    0.274087
      2          6           0        0.918663    0.040615   -0.102655
      3          7           0        0.203841   -1.096325    0.275563
      4          8           0       -0.977226   -0.981976   -0.591408
      5          6           0       -1.139241    0.336881   -0.353201
      6          7           0       -1.846620    0.453562    0.747478
      7          6           0        0.111181    0.993898   -0.651995
      8          1           0        2.493957   -0.259765    1.287151
      9          1           0        2.943570   -0.509456   -0.394340
     10          1           0        2.728311    1.142185    0.220504
     11          1           0       -1.789068    1.388966    1.138896
     12          1           0       -0.844281   -0.392262    1.166425
     13          1           0        0.316730    2.031702   -0.846069
 ---------------------------------------------------------------------

 SCF Done:  E(RHF) =  -338.866116558     A.U. after    2 cycles

 The electronic state is 1-A.
 Alpha  occ. eigenvalues --  -20.58654 -15.55126 -15.53780 -11.39161 -11.31085
 Alpha  occ. eigenvalues --  -11.25769 -11.25241  -1.55408  -1.24324  -1.18506
 Alpha  occ. eigenvalues --   -1.04353  -1.00318  -0.83767  -0.77261  -0.76560
 Alpha  occ. eigenvalues --   -0.71954  -0.65793  -0.62088  -0.59430  -0.58431
 Alpha  occ. eigenvalues --   -0.55247  -0.54727  -0.53594  -0.48092  -0.43200
 Alpha  occ. eigenvalues --   -0.36449
 Alpha virt. eigenvalues --    0.02329   0.03584   0.03765   0.05220   0.05591
 Alpha virt. eigenvalues --    0.06224   0.07659   0.08954   0.10044   0.10351
 Alpha virt. eigenvalues --    0.12028   0.12917   0.13102   0.14033   0.14657

 Mulliken charges:
               1
     1  C   -0.616157
     2  C   -0.712762
     3  N    0.645912
     4  O   -1.415746
     5  C   -0.708887
     6  N    0.517486
     7  C    0.708805
     8  H    0.219787
     9  H    0.265353
    10  H    0.187453
    11  H    0.283143
    12  H    0.784220
    13  H   -0.158606
 Sum of Mulliken charges =  -0.00000

 Dipole moment (field-independent basis, Debye):
    X=              2.0232    Y=              4.4346    Z=              0.4807  Tot=              4.8979

 Test job not archived.
 1\1\GINC-SE212\SP\RHF\Aug-CC-pVDZ\C4H6N2O1\OHZDE\09-Apr-2025\0\\#t hf
 aug-cc-pvdz iop(5/13=1,5/36=2,99/5=2) pseudo=read geom=check guess=(re
 ad,tcheck) scf=(maxcycle=1)\\title\\0,1\C,0,-1.88698213,0.42251051,-0.
 22980843\C,0,-0.56864278,-0.18478675,0.0894852\N,0,-0.02873372,-1.0956
 5016,-0.8190735\O,0,1.00272653,-1.73507616,0.009696\C,0,1.44352593,-0.
 5679177,0.52526438\N,0,2.32332317,-0.07396899,-0.31584363\C,0,0.306865
 11,0.11918448,1.09130237\H,0,-1.93556225,0.66730564,-1.29211266\H,0,-2
 .68092832,-0.29834718,-0.02567998\H,0,-2.06747356,1.32394646,0.3539569

 Normal termination of Gaussian 16 at Wed Apr  9 19:05:56 2025.
