 Gaussian 16, Revision C.01,

 ----------------------------------------------------------------------
 #t hf aug-cc-pvdz symm=none int=(grid=ultrafine) guess=(read,tcheck) s
 table=(opt,rrhf)
 ----------------------------------------------------------------------
 -----
 title
 -----
 Symbolic Z-matrix:
 Charge =  0 Multiplicity = 1

 SCF Done:  E(RHF) =  -354.656059081     A.U. after   15 cycles
 Normal termination of Gaussian 16 at Wed Apr  9 18:19:02 2025.
 Gaussian 16:  ES64L-G16RevC.01  3-Jul-2019

 ----------------------------------------------------------------------
 #t hf aug-cc-pvdz iop(5/13=1,5/36=2,99/5=2) pseudo=read geom=check gue
 ss=(read,tcheck) scf=(maxcycle=1)
 ----------------------------------------------------------------------
 -----
 title
 -----
 Structure from the checkpoint file:  "Grambow2020_wb97xd3_007312_reverse_mol1.chk"
 Charge =  0 Multiplicity = 1

                         Standard orientation:
 ---------------------------------------------------------------------
 Center     Atomic      Atomic             Coordinates (Angstroms)
 Number     Number       Type             X           Y           Z
 ---------------------------------------------------------------------
      1          8           0       -2.425711   -0.445661   -0.159986
      2          6           0       -1.589631    0.644082    0.117829
      3          6           0       -0.139644    0.289516    0.022531
      4          7           0        0.254746   -0.996904    0.070087
      5          7           0        1.565393   -1.001573   -0.055047
      6          6           0        1.931557    0.369532   -0.084702
      7          7           0        0.851271    1.164864   -0.049855
      8          1           0       -1.963147   -1.251310    0.091808
      9          1           0       -1.774324    1.048575    1.122766
     10          1           0       -1.806682    1.441665   -0.594998
     11          1           0        2.109770   -0.332169    0.950022
     12          1           0        2.926518    0.675037   -0.379947
 ---------------------------------------------------------------------

 SCF Done:  E(RHF) =  -355.016400042     A.U. after    2 cycles

 The electronic state is 1-A.
 Alpha  occ. eigenvalues --  -20.55457 -15.62032 -15.54991 -15.52757 -11.35248
 Alpha  occ. eigenvalues --  -11.32730 -11.30765  -1.46654  -1.43912  -1.24042
 Alpha  occ. eigenvalues --   -1.15041  -0.99024  -0.90886  -0.85388  -0.76662
 Alpha  occ. eigenvalues --   -0.73370  -0.68586  -0.66025  -0.63623  -0.60429
 Alpha  occ. eigenvalues --   -0.54289  -0.53561  -0.50977  -0.49227  -0.47116
 Alpha  occ. eigenvalues --   -0.44621
 Alpha virt. eigenvalues --    0.02580   0.03937   0.04723   0.05543   0.06275
 Alpha virt. eigenvalues --    0.06673   0.07504   0.08304   0.11774   0.12221
 Alpha virt. eigenvalues --    0.12537   0.13689   0.13941   0.14239   0.15108

 Mulliken charges:
               1
     1  O   -1.197759
     2  C    1.174202
     3  C   -1.656959
     4  N    0.165199
     5  N    0.013495
     6  C   -0.592213
     7  N    0.817808
     8  H    0.331598
     9  H    0.239707
    10  H    0.167920
    11  H    0.554666
    12  H   -0.017664
 Sum of Mulliken charges =  -0.00000

 Dipole moment (field-independent basis, Debye):
    X=              2.7092    Y=              1.3436    Z=              1.2198  Tot=              3.2608

 Test job not archived.
 1\1\GINC-SE105\SP\RHF\Aug-CC-pVDZ\C3H5N3O1\OHZDE\09-Apr-2025\0\\#t hf
 aug-cc-pvdz iop(5/13=1,5/36=2,99/5=2) pseudo=read geom=check guess=(re
 ad,tcheck) scf=(maxcycle=1)\\title\\0,1\O,0,-2.30647585,0.91359117,-0.
 44031641\C,0,-1.64092411,-0.24994508,-0.03169081\C,0,-0.15424255,-0.08
 554192,-0.02858042\N,0,0.42525089,0.91250632,-0.72195473\N,0,1.7226463
 6,0.81855715,-0.51844866\C,0,1.88287012,-0.35550627,0.26308072\N,0,0.6
 9708557,-0.90172739,0.57347233\H,0,-1.73100117,1.39232979,-1.0453584\H
 ,0,-1.88619352,-1.10357951,-0.6788187\H,0,-1.97100561,-0.50539219,0.97

 Normal termination of Gaussian 16 at Wed Apr  9 18:19:07 2025.
