 Gaussian 16, Revision C.01,

 ----------------------------------------------------------------------
 #t hf aug-cc-pvdz symm=none int=(grid=ultrafine) guess=(read,tcheck) s
 table=(opt,rrhf)
 ----------------------------------------------------------------------
 -----
 title
 -----
 Symbolic Z-matrix:
 Charge =  0 Multiplicity = 1

 SCF Done:  E(RHF) =  -284.822806202     A.U. after   14 cycles
 Normal termination of Gaussian 16 at Wed Apr  9 03:06:51 2025.
 Gaussian 16:  ES64L-G16RevC.01  3-Jul-2019

 ----------------------------------------------------------------------
 #t hf aug-cc-pvdz iop(5/13=1,5/36=2,99/5=2) pseudo=read geom=check gue
 ss=(read,tcheck) scf=(maxcycle=1)
 ----------------------------------------------------------------------
 -----
 title
 -----
 Structure from the checkpoint file:  "Grambow2020_b97d3_006531_reverse_mol2.chk"
 Charge =  0 Multiplicity = 1

                         Standard orientation:
 ---------------------------------------------------------------------
 Center     Atomic      Atomic             Coordinates (Angstroms)
 Number     Number       Type             X           Y           Z
 ---------------------------------------------------------------------
      1          6           0        0.647654    1.084808    0.149768
      2          6           0        1.790739    0.170331   -0.324205
      3          8           0        1.001900   -1.026398   -0.086771
      4          6           0       -0.060996   -0.249029    0.514378
      5          7           0       -1.339982   -0.617374   -0.034385
      6          6           0       -2.217454    0.286329   -0.221658
      7          1           0        0.869013    1.762574    0.981790
      8          1           0        0.149912    1.636059   -0.656762
      9          1           0        2.083041    0.257834   -1.381122
     10          1           0        2.691103    0.201562    0.309074
     11          1           0       -0.119461   -0.435738    1.601975
     12          1           0       -2.069960    1.361895   -0.016905
     13          1           0       -3.198636   -0.006013   -0.612876
 ---------------------------------------------------------------------

 SCF Done:  E(RHF) =  -285.116250450     A.U. after    2 cycles

 The electronic state is 1-A.
 Alpha  occ. eigenvalues --  -20.53852 -15.51417 -11.32424 -11.29659 -11.29251
 Alpha  occ. eigenvalues --  -11.24777  -1.46097  -1.23535  -1.02632  -0.96191
 Alpha  occ. eigenvalues --   -0.84846  -0.76657  -0.71717  -0.69152  -0.66616
 Alpha  occ. eigenvalues --   -0.61505  -0.58403  -0.54674  -0.53568  -0.48057
 Alpha  occ. eigenvalues --   -0.45501  -0.43622  -0.41596
 Alpha virt. eigenvalues --    0.03241   0.04035   0.04180   0.04538   0.05844
 Alpha virt. eigenvalues --    0.06570   0.06802   0.08986   0.10963   0.11619
 Alpha virt. eigenvalues --    0.11906   0.13903   0.14291   0.14956   0.15281

 Mulliken charges:
               1
     1  C   -0.322116
     2  C    0.590898
     3  O   -1.328954
     4  C    0.125393
     5  N    0.718405
     6  C   -0.219304
     7  H    0.074468
     8  H    0.032775
     9  H    0.064215
    10  H    0.051197
    11  H    0.086368
    12  H    0.107481
    13  H    0.019172
 Sum of Mulliken charges =  -0.00000

 Dipole moment (field-independent basis, Debye):
    X=             -0.5230    Y=              4.0582    Z=              0.5230  Tot=              4.1251

 Test job not archived.
 1\1\GINC-SE132\SP\RHF\Aug-CC-pVDZ\C4H7N1O1\OHZDE\09-Apr-2025\0\\#t hf
 aug-cc-pvdz iop(5/13=1,5/36=2,99/5=2) pseudo=read geom=check guess=(re
 ad,tcheck) scf=(maxcycle=1)\\title\\0,1\C,0,-0.10909429,-0.63475249,0.
 75287233\C,0,-1.28912993,-1.2767984,0.00263414\O,0,-1.45276531,-0.1090
 5867,-0.84613516\C,0,-0.45580466,0.62174232,-0.09285739\N,0,0.49752583
 ,1.24545409,-0.97306682\C,0,1.72083117,1.2996051,-0.62335383\H,0,-0.20
 96033,-0.53409786,1.83933198\H,0,0.86776277,-1.0683638,0.50823942\H,0,
 -1.06356021,-2.17679633,-0.58837458\H,0,-2.17869598,-1.46037195,0.6252

 Normal termination of Gaussian 16 at Wed Apr  9 03:06:54 2025.
