 Gaussian 16, Revision C.01,

 ----------------------------------------------------------------------
 #t hf aug-cc-pvdz symm=none int=(grid=ultrafine) guess=(read,tcheck) s
 table=(opt,rrhf)
 ----------------------------------------------------------------------
 -----
 title
 -----
 Symbolic Z-matrix:
 Charge =  0 Multiplicity = 1

 SCF Done:  E(RHF) =  -269.872264244     A.U. after   16 cycles

 1\1\GINC-SE042\Stability\RHF\Aug-CC-pVDZ\C5H10O1\OHZDE\09-Apr-2025\0\\
 #t hf aug-cc-pvdz symm=none int=(grid=ultrafine) guess=(read,tcheck) s
 table=(opt,rrhf)\\title\\0,1\C,0,2.31840686,0.76814578,-0.81012423\C,0
 ,0.93278126,0.95521594,-0.17205813\C,0,0.46253554,-0.28065038,0.504890
 35\O,0,-0.51627127,-0.15869302,1.4805992\C,0,-1.5149175,-0.94682697,0.
 98588948\C,0,-2.22024641,-0.70860829,-0.31354979\H,0,3.05905474,0.4849
 6902,-0.05058673\H,0,2.6548698,1.69165626,-1.2999912\H,0,2.29162645,-0
 .02696307,-1.56950923\H,0,0.94351888,1.76430827,0.57890056\H,0,0.22039

 Normal termination of Gaussian 16 at Wed Apr  9 03:09:04 2025.
 Gaussian 16:  ES64L-G16RevC.01  3-Jul-2019

 ----------------------------------------------------------------------
 #t hf aug-cc-pvdz iop(5/13=1,5/36=2,99/5=2) pseudo=read geom=check gue
 ss=(read,tcheck) scf=(maxcycle=1)
 ----------------------------------------------------------------------
 -----
 title
 -----
 Structure from the checkpoint file:  "Grambow2020_b97d3_006617_forward_mol1.chk"
 Charge =  0 Multiplicity = 1

                         Standard orientation:
 ---------------------------------------------------------------------
 Center     Atomic      Atomic             Coordinates (Angstroms)
 Number     Number       Type             X           Y           Z
 ---------------------------------------------------------------------
      1          6           0       -2.694425    0.309786    0.251005
      2          6           0       -1.371471    0.130377   -0.510367
      3          6           0       -0.316047   -0.469884    0.345508
      4          8           0        0.752692   -1.096852   -0.278712
      5          6           0        1.818736   -0.390025    0.197873
      6          6           0        2.034728    1.075021   -0.025214
      7          1           0       -3.058928   -0.655659    0.626101
      8          1           0       -3.465815    0.747577   -0.396563
      9          1           0       -2.557942    0.978179    1.113678
     10          1           0       -1.501038   -0.524126   -1.389868
     11          1           0       -1.059820    1.111731   -0.926864
     12          1           0       -0.161837   -0.209202    1.392877
     13          1           0        2.638192   -1.020151    0.549183
     14          1           0        1.209034    1.512954   -0.599968
     15          1           0        2.970005    1.238600   -0.595685
     16          1           0        2.137490    1.663260    0.903981
 ---------------------------------------------------------------------

 SCF Done:  E(RHF) =  -270.158468319     A.U. after    2 cycles

 The electronic state is 1-A.
 Alpha  occ. eigenvalues --  -20.61334 -11.30554 -11.29192 -11.24517 -11.24333
 Alpha  occ. eigenvalues --  -11.23244  -1.52141  -1.06044  -1.01373  -0.91819
 Alpha  occ. eigenvalues --   -0.82993  -0.79665  -0.68321  -0.66233  -0.64099
 Alpha  occ. eigenvalues --   -0.61067  -0.56849  -0.55500  -0.54923  -0.54073
 Alpha  occ. eigenvalues --   -0.51113  -0.50243  -0.45837  -0.23977
 Alpha virt. eigenvalues --    0.03594   0.03857   0.03959   0.04352   0.05222
 Alpha virt. eigenvalues --    0.05904   0.06159   0.06845   0.08184   0.08693
 Alpha virt. eigenvalues --    0.10053   0.11365   0.12896   0.13816   0.14305

 Mulliken charges:
               1
     1  C   -0.339278
     2  C   -0.628974
     3  C    0.921495
     4  O   -1.408922
     5  C    0.576332
     6  C   -0.498601
     7  H    0.200508
     8  H    0.125748
     9  H    0.163685
    10  H    0.215584
    11  H    0.188144
    12  H    0.026386
    13  H   -0.071198
    14  H    0.124215
    15  H    0.190992
    16  H    0.213880
 Sum of Mulliken charges =   0.00000

 Dipole moment (field-independent basis, Debye):
    X=              0.1032    Y=              1.3823    Z=              0.1297  Tot=              1.3922

 Test job not archived.
 1\1\GINC-SE042\SP\RHF\Aug-CC-pVDZ\C5H10O1\OHZDE\09-Apr-2025\0\\#t hf a
 ug-cc-pvdz iop(5/13=1,5/36=2,99/5=2) pseudo=read geom=check guess=(rea
 d,tcheck) scf=(maxcycle=1)\\title\\0,1\C,0,2.31840686,0.76814578,-0.81
 012423\C,0,0.93278126,0.95521594,-0.17205813\C,0,0.46253554,-0.2806503
 8,0.50489035\O,0,-0.51627127,-0.15869302,1.4805992\C,0,-1.5149175,-0.9
 4682697,0.98588948\C,0,-2.22024641,-0.70860829,-0.31354979\H,0,3.05905
 474,0.48496902,-0.05058673\H,0,2.6548698,1.69165626,-1.2999912\H,0,2.2
 9162645,-0.02696307,-1.56950923\H,0,0.94351888,1.76430827,0.57890056\H

 Normal termination of Gaussian 16 at Wed Apr  9 03:09:08 2025.
