 Gaussian 16, Revision C.01,

 ----------------------------------------------------------------------
 #t hf aug-cc-pvdz symm=none int=(grid=ultrafine) guess=(read,tcheck) s
 table=(opt,rrhf)
 ----------------------------------------------------------------------
 -----
 title
 -----
 Symbolic Z-matrix:
 Charge =  0 Multiplicity = 1

 SCF Done:  E(RHF) =  -305.675511260     A.U. after   14 cycles
 Normal termination of Gaussian 16 at Wed Apr  9 03:06:36 2025.
 Gaussian 16:  ES64L-G16RevC.01  3-Jul-2019

 ----------------------------------------------------------------------
 #t hf aug-cc-pvdz iop(5/13=1,5/36=2,99/5=2) pseudo=read geom=check gue
 ss=(read,tcheck) scf=(maxcycle=1)
 ----------------------------------------------------------------------
 -----
 title
 -----
 Structure from the checkpoint file:  "Grambow2020_b97d3_006522_forward_mol1.chk"
 Charge =  0 Multiplicity = 1

                         Standard orientation:
 ---------------------------------------------------------------------
 Center     Atomic      Atomic             Coordinates (Angstroms)
 Number     Number       Type             X           Y           Z
 ---------------------------------------------------------------------
      1          8           0        1.954536    0.402355   -0.624868
      2          6           0        1.484335   -0.388316    0.444676
      3          6           0       -0.014281   -0.287130    0.634010
      4          6           0       -0.724184    0.999116    0.286544
      5          6           0       -1.922585    0.159305   -0.075871
      6          8           0       -0.865632   -0.853597   -0.611776
      7          1           0        1.279334    1.119121   -0.713454
      8          1           0        1.781146   -1.433390    0.268748
      9          1           0        1.921553   -0.080896    1.419132
     10          1           0       -0.384969   -0.924700    1.457337
     11          1           0       -0.760259    1.858044    0.965449
     12          1           0       -0.429965    0.122666   -1.081561
     13          1           0       -2.613417    0.464181   -0.870883
     14          1           0       -2.444358   -0.412944    0.712227
 ---------------------------------------------------------------------

 SCF Done:  E(RHF) =  -305.992991235     A.U. after    2 cycles

 The electronic state is 1-A.
 Alpha  occ. eigenvalues --  -20.62274 -20.54557 -11.32944 -11.32138 -11.29902
 Alpha  occ. eigenvalues --  -11.20885  -1.50371  -1.44496  -1.05205  -0.99465
 Alpha  occ. eigenvalues --   -0.88002  -0.80020  -0.72107  -0.69480  -0.65522
 Alpha  occ. eigenvalues --   -0.63409  -0.60761  -0.57180  -0.55140  -0.52604
 Alpha  occ. eigenvalues --   -0.49499  -0.48575  -0.44220  -0.31909
 Alpha virt. eigenvalues --    0.03221   0.03575   0.04199   0.04848   0.06355
 Alpha virt. eigenvalues --    0.06854   0.07097   0.08503   0.10221   0.12307
 Alpha virt. eigenvalues --    0.13013   0.13478   0.14080   0.14609   0.14967

 Mulliken charges:
               1
     1  O   -1.178939
     2  C    0.634497
     3  C    0.510882
     4  C   -0.372633
     5  C    0.461685
     6  O   -1.332113
     7  H    0.456673
     8  H    0.178999
     9  H    0.216145
    10  H   -0.155927
    11  H   -0.170360
    12  H    0.686590
    13  H   -0.006131
    14  H    0.070634
 Sum of Mulliken charges =  -0.00000

 Dipole moment (field-independent basis, Debye):
    X=             -2.0297    Y=             -0.6913    Z=              1.8174  Tot=              2.8108

 Test job not archived.
 1\1\GINC-SE042\SP\RHF\Aug-CC-pVDZ\C4H8O2\OHZDE\09-Apr-2025\0\\#t hf au
 g-cc-pvdz iop(5/13=1,5/36=2,99/5=2) pseudo=read geom=check guess=(read
 ,tcheck) scf=(maxcycle=1)\\title\\0,1\O,0,-2.11684955,0.17989396,-0.72
 48138\C,0,-1.52940724,-0.7013331,0.20713331\C,0,-0.0410162,-0.47669844
 ,0.36889902\C,0,0.76943884,0.02038598,-0.80378739\C,0,1.65935105,0.716
 27915,0.19450217\O,0,0.33507099,0.96742463,0.97777758\H,0,-1.37244598,
 0.43221437,-1.32456241\H,0,-2.04380409,-0.58807519,1.17346396\H,0,-1.6
 3105452,-1.76522829,-0.09786847\H,0,0.41430399,-1.15198145,1.11619367\

 Normal termination of Gaussian 16 at Wed Apr  9 03:06:40 2025.
