 Gaussian 16, Revision C.01,

 ----------------------------------------------------------------------
 #t hf aug-cc-pvdz symm=none int=(grid=ultrafine) guess=(read,tcheck) s
 table=(opt,rrhf)
 ----------------------------------------------------------------------
 -----
 title
 -----
 Symbolic Z-matrix:
 Charge =  0 Multiplicity = 1

 SCF Done:  E(RHF) =  -302.157037607     A.U. after   18 cycles
 Normal termination of Gaussian 16 at Wed Apr  9 15:43:35 2025.
 Gaussian 16:  ES64L-G16RevC.01  3-Jul-2019

 ----------------------------------------------------------------------
 #t hf aug-cc-pvdz iop(5/13=1,5/36=2,99/5=2) pseudo=read geom=check gue
 ss=(read,tcheck) scf=(maxcycle=1)
 ----------------------------------------------------------------------
 -----
 title
 -----
 Structure from the checkpoint file:  "Grambow2020_b97d3_006707_reverse_mol1.chk"
 Charge =  0 Multiplicity = 1

                         Standard orientation:
 ---------------------------------------------------------------------
 Center     Atomic      Atomic             Coordinates (Angstroms)
 Number     Number       Type             X           Y           Z
 ---------------------------------------------------------------------
      1          8           0       -2.353855   -0.367207    0.016655
      2          6           0       -1.212312   -0.022737    0.112383
      3          6           0       -0.343706    1.098539   -0.066450
      4          6           0        0.951196    1.155957   -0.111370
      5          6           0        1.710096   -0.027275    0.131993
      6          8           0        1.186006   -1.164214   -0.140584
      7          1           0        0.010796   -0.947463   -0.003849
      8          1           0        2.700354   -0.028073    0.595941
 ---------------------------------------------------------------------

 SCF Done:  E(RHF) =  -302.447595621     A.U. after    2 cycles

 The electronic state is 1-A.
 Alpha  occ. eigenvalues --  -20.64307 -20.59571 -11.42839 -11.38834 -11.32100
 Alpha  occ. eigenvalues --  -11.27893  -1.55523  -1.51774  -1.13163  -0.98929
 Alpha  occ. eigenvalues --   -0.86588  -0.79309  -0.72986  -0.70388  -0.66910
 Alpha  occ. eigenvalues --   -0.61143  -0.58639  -0.54894  -0.44707  -0.43424
 Alpha  occ. eigenvalues --   -0.35742
 Alpha virt. eigenvalues --   -0.00711   0.02120   0.02800   0.05944   0.07398
 Alpha virt. eigenvalues --    0.07693   0.09173   0.09999   0.11295   0.11935
 Alpha virt. eigenvalues --    0.12790   0.14195   0.14312   0.14790   0.16172

 Mulliken charges:
               1
     1  O   -0.986174
     2  C    0.279041
     3  C    0.377641
     4  C   -0.289523
     5  C    1.063834
     6  O   -1.383078
     7  H    0.808533
     8  H    0.129726
 Sum of Mulliken charges =  -0.00000

 Dipole moment (field-independent basis, Debye):
    X=              3.2496    Y=             -0.7114    Z=              1.0240  Tot=              3.4806

 Test job not archived.
 1\1\GINC-SE057\SP\RHF\Aug-CC-pVDZ\C4H2O2\OHZDE\09-Apr-2025\0\\#t hf au
 g-cc-pvdz iop(5/13=1,5/36=2,99/5=2) pseudo=read geom=check guess=(read
 ,tcheck) scf=(maxcycle=1)\\title\\0,1\O,0,-2.51515359,-0.6586882,0.540
 68561\C,0,-1.45878062,-0.16594241,0.27194375\C,0,-0.8533263,0.88395884
 ,-0.48624439\C,0,0.38908956,1.07879179,-0.80330611\C,0,1.38681456,0.20
 16595,-0.28332847\O,0,1.06043321,-1.00330886,0.00498671\H,0,-0.1063749
 4,-0.89778111,0.27741811\H,0,2.41067013,0.51306245,-0.05837021\\Versio
 n=ES64L-G16RevC.01\State=1-A\HF=-302.4475956\RMSD=1.365e-02\Dipole=1.3

 Normal termination of Gaussian 16 at Wed Apr  9 15:43:38 2025.
