 Gaussian 16, Revision C.01,

 ----------------------------------------------------------------------
 #t hf aug-cc-pvdz symm=none int=(grid=ultrafine) guess=(read,tcheck) s
 table=(opt,rrhf)
 ----------------------------------------------------------------------
 -----
 title
 -----
 Symbolic Z-matrix:
 Charge =  0 Multiplicity = 1

 SCF Done:  E(RHF) =  -306.682908081     A.U. after   14 cycles
 Normal termination of Gaussian 16 at Wed Apr  9 03:39:32 2025.
 Gaussian 16:  ES64L-G16RevC.01  3-Jul-2019

 ----------------------------------------------------------------------
 #t hf aug-cc-pvdz iop(5/13=1,5/36=2,99/5=2) pseudo=read geom=check gue
 ss=(read,tcheck) scf=(maxcycle=1)
 ----------------------------------------------------------------------
 -----
 title
 -----
 Structure from the checkpoint file:  "Grambow2020_wb97xd3_007369_reverse_mol2.chk"
 Charge =  0 Multiplicity = 1

                         Standard orientation:
 ---------------------------------------------------------------------
 Center     Atomic      Atomic             Coordinates (Angstroms)
 Number     Number       Type             X           Y           Z
 ---------------------------------------------------------------------
      1          6           0        2.050656   -0.339951   -0.671129
      2          6           0        1.544156   -0.949746    0.622822
      3          6           0        0.837845    0.180042   -0.015191
      4          6           0        0.275110    1.469568    0.378389
      5          6           0       -1.650428   -0.224506    0.268382
      6          8           0       -2.683032   -0.571602   -0.238955
      7          6           0       -0.558231    0.474314   -0.436233
      8          1           0        2.949697    0.261874   -0.626791
      9          1           0        1.934731   -0.920286   -1.577734
     10          1           0        1.098146   -1.934980    0.570048
     11          1           0        2.106752   -0.753420    1.526898
     12          1           0       -0.009856    1.619426    1.413789
     13          1           0        0.590561    2.363668   -0.143784
     14          1           0       -1.448591   -0.426475    1.343579
     15          1           0       -0.751826    0.704687   -1.476605
 ---------------------------------------------------------------------

 SCF Done:  E(RHF) =  -307.002642196     A.U. after    2 cycles

 The electronic state is 1-A.
 Alpha  occ. eigenvalues --  -20.53869 -11.33772 -11.26424 -11.26000 -11.25546
 Alpha  occ. eigenvalues --  -11.25166 -11.25072  -1.47355  -1.20660  -1.10074
 Alpha  occ. eigenvalues --   -0.91796  -0.84803  -0.80626  -0.76744  -0.70306
 Alpha  occ. eigenvalues --   -0.67099  -0.66949  -0.63389  -0.57584  -0.55295
 Alpha  occ. eigenvalues --   -0.53734  -0.50818  -0.45709  -0.44615  -0.41455
 Alpha  occ. eigenvalues --   -0.40820
 Alpha virt. eigenvalues --    0.03261   0.03376   0.03614   0.04357   0.05786
 Alpha virt. eigenvalues --    0.06118   0.06393   0.08293   0.08920   0.10765
 Alpha virt. eigenvalues --    0.12202   0.12777   0.13325   0.13906   0.14151

 Mulliken charges:
               1
     1  C    0.016973
     2  C    0.047479
     3  C    0.594535
     4  C   -0.029853
     5  C    0.802902
     6  O   -1.169340
     7  C    0.198233
     8  H   -0.043460
     9  H   -0.054348
    10  H   -0.066382
    11  H   -0.039558
    12  H   -0.073502
    13  H   -0.071747
    14  H    0.109708
    15  H   -0.221641
 Sum of Mulliken charges =   0.00000

 Dipole moment (field-independent basis, Debye):
    X=              3.4423    Y=              1.1048    Z=              0.8893  Tot=              3.7231

 Test job not archived.
 1\1\GINC-SE177\SP\RHF\Aug-CC-pVDZ\C6H8O1\OHZDE\09-Apr-2025\0\\#t hf au
 g-cc-pvdz iop(5/13=1,5/36=2,99/5=2) pseudo=read geom=check guess=(read
 ,tcheck) scf=(maxcycle=1)\\title\\0,1\C,0,-1.75491099,0.43993697,-0.33
 371794\C,0,-1.24608038,0.00319966,1.02755139\C,0,-0.39185867,-0.096717
 68,-0.17356407\C,0,0.47551119,-1.08568394,-0.80922748\C,0,1.9675675,0.
 5251893,0.52063697\O,0,2.83668393,1.35511155,0.51948204\C,0,0.97720006
 ,0.34036695,-0.55766651\H,0,-2.49290639,-0.18529701,-0.82041903\H,0,-1
 .87072104,1.50213468,-0.50831415\H,0,-1.03068498,0.77788682,1.75271427

 Normal termination of Gaussian 16 at Wed Apr  9 03:39:38 2025.
