 Gaussian 16, Revision C.01,

 ----------------------------------------------------------------------
 #t hf aug-cc-pvdz symm=none int=(grid=ultrafine) guess=(read,tcheck) s
 table=(opt,rrhf)
 ----------------------------------------------------------------------
 -----
 title
 -----
 Symbolic Z-matrix:
 Charge =  0 Multiplicity = 1

 SCF Done:  E(RHF) =  -322.722800080     A.U. after   14 cycles
 Normal termination of Gaussian 16 at Wed Apr  9 03:52:36 2025.
 Gaussian 16:  ES64L-G16RevC.01  3-Jul-2019

 ----------------------------------------------------------------------
 #t hf aug-cc-pvdz iop(5/13=1,5/36=2,99/5=2) pseudo=read geom=check gue
 ss=(read,tcheck) scf=(maxcycle=1)
 ----------------------------------------------------------------------
 -----
 title
 -----
 Structure from the checkpoint file:  "Grambow2020_wb97xd3_008256_reverse_mol2.chk"
 Charge =  0 Multiplicity = 1

                         Standard orientation:
 ---------------------------------------------------------------------
 Center     Atomic      Atomic             Coordinates (Angstroms)
 Number     Number       Type             X           Y           Z
 ---------------------------------------------------------------------
      1          6           0        0.782897    1.844275   -0.001172
      2          6           0        0.660528    0.511349   -0.000607
      3          7           0       -0.475331   -0.253007   -0.001476
      4          6           0       -1.773628    0.214356    0.002192
      5          6           0       -2.861614   -0.548775   -0.000816
      6          6           0        1.907622   -0.296099    0.000947
      7          8           0        1.910840   -1.499350    0.000849
      8          1           0        2.843925    0.289888    0.002198
      9          1           0       -0.054146    2.527830   -0.004214
     10          1           0        1.774427    2.275281   -0.000703
     11          1           0       -0.309357   -1.248166   -0.004648
     12          1           0       -1.861593    1.293846    0.009629
     13          1           0       -2.807389   -1.630973   -0.007638
     14          1           0       -3.840097   -0.092500    0.005652
 ---------------------------------------------------------------------

 SCF Done:  E(RHF) =  -323.053292020     A.U. after    2 cycles

 The electronic state is 1-A.
 Alpha  occ. eigenvalues --  -20.56404 -15.53381 -11.35803 -11.30571 -11.28978
 Alpha  occ. eigenvalues --  -11.25273 -11.22600  -1.49942  -1.27602  -1.09020
 Alpha  occ. eigenvalues --   -1.01979  -0.91057  -0.84124  -0.81528  -0.72467
 Alpha  occ. eigenvalues --   -0.70511  -0.66918  -0.63449  -0.61197  -0.60744
 Alpha  occ. eigenvalues --   -0.58911  -0.54222  -0.54190  -0.44530  -0.40795
 Alpha  occ. eigenvalues --   -0.32417
 Alpha virt. eigenvalues --    0.03308   0.03983   0.04256   0.05076   0.05901
 Alpha virt. eigenvalues --    0.06236   0.08454   0.08869   0.09250   0.10730
 Alpha virt. eigenvalues --    0.10852   0.12464   0.13317   0.14218   0.14491

 Mulliken charges:
               1
     1  C    0.431351
     2  C   -0.502362
     3  N    0.936960
     4  C   -0.259449
     5  C    0.268392
     6  C    1.126481
     7  O   -1.269582
     8  H    0.059907
     9  H   -0.174169
    10  H   -0.135573
    11  H    0.097360
    12  H   -0.345748
    13  H   -0.154900
    14  H   -0.078670
 Sum of Mulliken charges =  -0.00000

 Dipole moment (field-independent basis, Debye):
    X=             -0.1452    Y=              2.2822    Z=              0.0004  Tot=              2.2868

 Test job not archived.
 1\1\GINC-SE015\SP\RHF\Aug-CC-pVDZ\C5H7N1O1\OHZDE\09-Apr-2025\0\\#t hf
 aug-cc-pvdz iop(5/13=1,5/36=2,99/5=2) pseudo=read geom=check guess=(re
 ad,tcheck) scf=(maxcycle=1)\\title\\0,1\C,0,-1.82572319,0.11199316,0.5
 7439899\C,0,-0.90207079,-0.1815409,-0.34884036\N,0,0.46054477,-0.07098
 971,-0.2748522\C,0,1.18467949,0.38791609,0.80637486\C,0,2.50924115,0.4
 8419291,0.8549447\C,0,-1.37521641,-0.70535009,-1.65611781\O,0,-0.63023
 587,-1.00076244,-2.55364718\H,0,-2.47108322,-0.80676875,-1.75011229\H,
 0,-1.59600151,0.49635987,1.55795748\H,0,-2.86843011,-0.0425935,0.33405

 Normal termination of Gaussian 16 at Wed Apr  9 03:52:41 2025.
