 Gaussian 16, Revision C.01,

 ----------------------------------------------------------------------
 #t hf aug-cc-pvdz symm=none int=(grid=ultrafine) guess=(read,tcheck) s
 table=(opt,rrhf)
 ----------------------------------------------------------------------
 -----
 title
 -----
 Symbolic Z-matrix:
 Charge =  0 Multiplicity = 1

 SCF Done:  E(RHF) =  -355.763658671     A.U. after   16 cycles
 Normal termination of Gaussian 16 at Wed Apr  9 19:14:53 2025.
 Gaussian 16:  ES64L-G16RevC.01  3-Jul-2019

 ----------------------------------------------------------------------
 #t hf aug-cc-pvdz iop(5/13=1,5/36=2,99/5=2) pseudo=read geom=check gue
 ss=(read,tcheck) scf=(maxcycle=1)
 ----------------------------------------------------------------------
 -----
 title
 -----
 Structure from the checkpoint file:  "Grambow2020_wb97xd3_008991_forward_mol1.chk"
 Charge =  0 Multiplicity = 1

                         Standard orientation:
 ---------------------------------------------------------------------
 Center     Atomic      Atomic             Coordinates (Angstroms)
 Number     Number       Type             X           Y           Z
 ---------------------------------------------------------------------
      1          6           0        2.367802   -0.590273    0.503572
      2          7           0        1.719616   -0.405629   -0.637458
      3          6           0        0.546857    0.380233    0.037769
      4          8           0        0.549957    1.600137   -0.037840
      5          7           0       -0.628705   -0.406785   -0.264631
      6          6           0       -1.863056    0.155250   -0.011774
      7          7           0       -2.869574   -0.583620    0.200600
      8          1           0        2.721598    0.291830    1.025095
      9          1           0        2.825988   -1.543774    0.766172
     10          1           0        0.878242   -0.066483    1.226887
     11          1           0        1.473158   -1.212961   -1.189141
     12          1           0       -0.600586   -1.390774   -0.036043
     13          1           0       -1.849481    1.244392   -0.057810
     14          1           0       -3.707555   -0.022348    0.300592
 ---------------------------------------------------------------------

 SCF Done:  E(RHF) =  -356.128356689     A.U. after    2 cycles

 The electronic state is 1-A.
 Alpha  occ. eigenvalues --  -20.47630 -15.55546 -15.52440 -15.46834 -11.40913
 Alpha  occ. eigenvalues --  -11.40036 -11.31074  -1.44483  -1.30710  -1.26155
 Alpha  occ. eigenvalues --   -1.16329  -0.96520  -0.90549  -0.83365  -0.80790
 Alpha  occ. eigenvalues --   -0.73575  -0.70880  -0.67212  -0.66200  -0.64219
 Alpha  occ. eigenvalues --   -0.60808  -0.56091  -0.49992  -0.46665  -0.42183
 Alpha  occ. eigenvalues --   -0.41171  -0.35661
 Alpha virt. eigenvalues --    0.00641   0.01920   0.03666   0.04582   0.05102
 Alpha virt. eigenvalues --    0.06136   0.06973   0.07735   0.09494   0.10994
 Alpha virt. eigenvalues --    0.11607   0.12374   0.13203   0.13772   0.14607

 Mulliken charges:
               1
     1  C   -0.148327
     2  N    0.444410
     3  C    0.135267
     4  O   -1.363441
     5  N    0.395401
     6  C   -0.853237
     7  N    0.576516
     8  H    0.130200
     9  H    0.063536
    10  H    0.320493
    11  H    0.173970
    12  H    0.168470
    13  H   -0.210097
    14  H    0.166838
 Sum of Mulliken charges =   0.00000

 Dipole moment (field-independent basis, Debye):
    X=              4.6318    Y=             -3.6047    Z=              1.4544  Tot=              6.0467

 Test job not archived.
 1\1\GINC-SE340\SP\RHF\Aug-CC-pVDZ\C3H7N3O1\OHZDE\09-Apr-2025\0\\#t hf
 aug-cc-pvdz iop(5/13=1,5/36=2,99/5=2) pseudo=read geom=check guess=(re
 ad,tcheck) scf=(maxcycle=1)\\title\\0,1\C,0,2.26834068,0.21632451,0.24
 105134\N,0,1.47827552,-0.83856927,0.37956135\C,0,0.41280104,-0.3013132
 6,-0.63285733\O,0,0.41933138,-0.74894054,-1.7701704\N,0,-0.8008044,-0.
 20149906,0.14815968\C,0,-1.98514078,0.01366626,-0.52600209\N,0,-2.9631
 8135,0.56385851,0.06122326\H,0,2.6970742,0.39367402,-0.73874329\H,0,2.
 74651323,0.70233206,1.09146643\H,0,0.89224663,0.91814942,-0.55275872\H

 Normal termination of Gaussian 16 at Wed Apr  9 19:14:57 2025.
