 Gaussian 16, Revision C.01,

 ----------------------------------------------------------------------
 #t hf aug-cc-pvdz symm=none int=(grid=ultrafine) guess=(read,tcheck) s
 table=(opt,rrhf)
 ----------------------------------------------------------------------
 -----
 title
 -----
 Symbolic Z-matrix:
 Charge =  0 Multiplicity = 1

 SCF Done:  E(RHF) =  -335.378171417     A.U. after   17 cycles
 Normal termination of Gaussian 16 at Wed Apr  9 15:44:35 2025.
 Gaussian 16:  ES64L-G16RevC.01  3-Jul-2019

 ----------------------------------------------------------------------
 #t hf aug-cc-pvdz iop(5/13=1,5/36=2,99/5=2) pseudo=read geom=check gue
 ss=(read,tcheck) scf=(maxcycle=1)
 ----------------------------------------------------------------------
 -----
 title
 -----
 Structure from the checkpoint file:  "Grambow2020_b97d3_006737_forward_mol1.chk"
 Charge =  0 Multiplicity = 1

                         Standard orientation:
 ---------------------------------------------------------------------
 Center     Atomic      Atomic             Coordinates (Angstroms)
 Number     Number       Type             X           Y           Z
 ---------------------------------------------------------------------
      1          8           0        2.144004   -0.436417    0.016536
      2          6           0        1.183315    0.255774    0.000484
      3          7           0        0.350473    1.185011   -0.066407
      4          6           0       -1.587249    0.714531    0.042658
      5          7           0       -1.523372   -0.508771    0.008560
      6          8           0       -0.596808   -1.336747   -0.013446
      7          1           0        0.576412    2.133949    0.203947
      8          1           0       -2.320090    1.495851   -0.082598
 ---------------------------------------------------------------------

 SCF Done:  E(RHF) =  -335.700795194     A.U. after    2 cycles

 The electronic state is 1-A.
 Alpha  occ. eigenvalues --  -20.62625 -20.54707 -15.62994 -15.57457 -11.46546
 Alpha  occ. eigenvalues --  -11.35047  -1.55662  -1.52617  -1.29482  -1.19947
 Alpha  occ. eigenvalues --   -0.88201  -0.82373  -0.75473  -0.74407  -0.69407
 Alpha  occ. eigenvalues --   -0.67769  -0.63769  -0.62332  -0.54946  -0.50346
 Alpha  occ. eigenvalues --   -0.38700  -0.38421
 Alpha virt. eigenvalues --    0.01638   0.03462   0.06428   0.07661   0.07927
 Alpha virt. eigenvalues --    0.09930   0.10073   0.10582   0.11301   0.12865
 Alpha virt. eigenvalues --    0.14069   0.15065   0.16171   0.16843   0.18632

 Mulliken charges:
               1
     1  O   -0.739866
     2  C    0.238424
     3  N    0.525760
     4  C   -0.309272
     5  N    1.420136
     6  O   -1.306230
     7  H    0.125448
     8  H    0.045600
 Sum of Mulliken charges =  -0.00000

 Dipole moment (field-independent basis, Debye):
    X=             -0.4835    Y=              5.9732    Z=              0.3284  Tot=              6.0017

 Test job not archived.
 1\1\GINC-SE131\SP\RHF\Aug-CC-pVDZ\C2H2N2O2\OHZDE\09-Apr-2025\0\\#t hf
 aug-cc-pvdz iop(5/13=1,5/36=2,99/5=2) pseudo=read geom=check guess=(re
 ad,tcheck) scf=(maxcycle=1)\\title\\0,1\O,0,2.4859068,0.03702953,0.221
 8974\C,0,1.34224981,0.32775207,0.12269863\N,0,0.23404809,0.86046407,-0
 .10021037\C,0,-1.41101678,-0.18940672,0.32351442\N,0,-0.91789508,-1.27
 558381,0.60415938\O,0,0.24188566,-1.71047445,0.70577991\H,0,0.10963703
 ,1.8649608,-0.11165828\H,0,-2.37341254,0.22809951,0.07313792\\Version=
 ES64L-G16RevC.01\State=1-A\HF=-335.7007952\RMSD=1.468e-02\Dipole=-1.01

 Normal termination of Gaussian 16 at Wed Apr  9 15:44:38 2025.
