 Gaussian 16, Revision C.01,

 ----------------------------------------------------------------------
 #t hf aug-cc-pvdz symm=none int=(grid=ultrafine) guess=(read,tcheck) s
 table=(opt,rrhf)
 ----------------------------------------------------------------------
 -----
 title
 -----
 Symbolic Z-matrix:
 Charge =  0 Multiplicity = 1

 SCF Done:  E(RHF) =  -305.696434080     A.U. after   15 cycles
 Normal termination of Gaussian 16 at Wed Apr  9 16:59:14 2025.
 Gaussian 16:  ES64L-G16RevC.01  3-Jul-2019

 ----------------------------------------------------------------------
 #t hf aug-cc-pvdz iop(5/13=1,5/36=2,99/5=2) pseudo=read geom=check gue
 ss=(read,tcheck) scf=(maxcycle=1)
 ----------------------------------------------------------------------
 -----
 title
 -----
 Structure from the checkpoint file:  "Grambow2020_wb97xd3_006215_reverse_mol2.chk"
 Charge =  0 Multiplicity = 1

                         Standard orientation:
 ---------------------------------------------------------------------
 Center     Atomic      Atomic             Coordinates (Angstroms)
 Number     Number       Type             X           Y           Z
 ---------------------------------------------------------------------
      1          6           0        1.414487   -1.291979   -0.234841
      2          8           0        1.632826   -0.211632    0.440781
      3          6           0        1.003515    0.927829    0.417915
      4          6           0       -0.112772    1.149406   -0.527230
      5          6           0       -1.324070    0.399896   -0.010673
      6          8           0       -1.692420   -0.662518   -0.437440
      7          1           0        0.547830   -1.381156   -0.871576
      8          1           0       -3.968046   -1.045549    1.881098
      9          1           0        2.121008   -2.082169   -0.045372
     10          1           0        1.423365    1.664703    1.081207
     11          1           0        0.135713    0.782930   -1.534510
     12          1           0       -0.334571    2.216928   -0.569336
     13          1           0       -1.822378    0.861811    0.865053
     14          1           0       -3.513130   -1.135210    1.295680
 ---------------------------------------------------------------------

 SCF Done:  E(RHF) =  -306.009772646     A.U. after    2 cycles

 The electronic state is 1-A.
 Alpha  occ. eigenvalues --  -20.68860 -20.55391 -11.34756 -11.30179 -11.29385
 Alpha  occ. eigenvalues --  -11.26590  -1.60730  -1.48815  -1.08615  -1.00798
 Alpha  occ. eigenvalues --   -0.84268  -0.78763  -0.76104  -0.71926  -0.67396
 Alpha  occ. eigenvalues --   -0.66801  -0.62154  -0.61342  -0.57877  -0.56525
 Alpha  occ. eigenvalues --   -0.54903  -0.49942  -0.42898  -0.26003
 Alpha virt. eigenvalues --    0.03216   0.03928   0.04130   0.04950   0.06117
 Alpha virt. eigenvalues --    0.06336   0.07570   0.07861   0.09381   0.10340
 Alpha virt. eigenvalues --    0.11979   0.12656   0.13744   0.13996   0.14808

 Mulliken charges:
               1
     1  C    0.382968
     2  O   -1.058920
     3  C    1.012935
     4  C   -0.778701
     5  C    1.174494
     6  O   -1.131330
     7  H    0.142784
     8  H    0.025788
     9  H   -0.122207
    10  H   -0.098128
    11  H    0.201109
    12  H    0.171401
    13  H    0.109052
    14  H   -0.031245
 Sum of Mulliken charges =  -0.00000

 Dipole moment (field-independent basis, Debye):
    X=              1.1392    Y=              2.0437    Z=              0.2123  Tot=              2.3493

 Test job not archived.
 1\1\GINC-SE114\SP\RHF\Aug-CC-pVDZ\C4H8O2\OHZDE\09-Apr-2025\0\\#t hf au
 g-cc-pvdz iop(5/13=1,5/36=2,99/5=2) pseudo=read geom=check guess=(read
 ,tcheck) scf=(maxcycle=1)\\title\\0,1\C,0,1.35774843,-1.48895748,-0.77
 370198\O,0,0.10686127,-1.62696049,-1.06954126\C,0,-0.9515269,-1.227821
 36,-0.4250015\C,0,-0.82183057,-0.55133836,0.88421167\C,0,-0.34004036,0
 .86400522,0.6382007\O,0,0.79865625,1.22348328,0.78200343\H,0,1.6643387
 7,-0.89011873,0.07002341\H,0,0.24901295,4.18565219,-0.49245911\H,0,2.0
 3122452,-1.95659809,-1.47170868\H,0,-1.87599452,-1.50367211,-0.9029973

 Normal termination of Gaussian 16 at Wed Apr  9 16:59:19 2025.
