 Gaussian 16, Revision C.01,

 ----------------------------------------------------------------------
 #t hf aug-cc-pvdz symm=none int=(grid=ultrafine) guess=(read,tcheck) s
 table=(opt,rrhf)
 ----------------------------------------------------------------------
 -----
 title
 -----
 Symbolic Z-matrix:
 Charge =  0 Multiplicity = 1

 SCF Done:  E(RHF) =  -271.933761495     A.U. after   16 cycles
 Normal termination of Gaussian 16 at Wed Apr  9 03:40:27 2025.
 Gaussian 16:  ES64L-G16RevC.01  3-Jul-2019

 ----------------------------------------------------------------------
 #t hf aug-cc-pvdz iop(5/13=1,5/36=2,99/5=2) pseudo=read geom=check gue
 ss=(read,tcheck) scf=(maxcycle=1)
 ----------------------------------------------------------------------
 -----
 title
 -----
 Structure from the checkpoint file:  "Grambow2020_wb97xd3_007433_reverse_mol2.chk"
 Charge =  0 Multiplicity = 1

                         Standard orientation:
 ---------------------------------------------------------------------
 Center     Atomic      Atomic             Coordinates (Angstroms)
 Number     Number       Type             X           Y           Z
 ---------------------------------------------------------------------
      1          6           0       -2.694208    0.192053   -0.522716
      2          6           0       -1.536215    0.652644    0.355720
      3          6           0       -0.651965   -0.495460    0.849112
      4          6           0        0.239497   -1.118876   -0.226515
      5          6           0        1.494844   -0.325825   -0.559868
      6          6           0        1.844771    1.067477   -0.172599
      7          6           0        2.531903   -0.084756    0.468358
      8          1           0       -3.314255    1.035492   -0.831284
      9          1           0       -3.334410   -0.512812    0.013550
     10          1           0       -2.345389   -0.303516   -1.431374
     11          1           0       -0.932727    1.378615   -0.196706
     12          1           0       -1.938080    1.184568    1.222804
     13          1           0       -1.297764   -1.277401    1.260150
     14          1           0       -0.339528   -1.257734   -1.143096
     15          1           0        0.556952   -2.114893    0.094106
     16          1           0        1.963898   -0.629070   -1.495880
     17          1           0        2.390682    1.694317   -0.868269
     18          1           0        1.252186    1.636122    0.540525
     19          1           0       -0.033326   -0.157230    1.686526
 ---------------------------------------------------------------------

 SCF Done:  E(RHF) =  -272.229965199     A.U. after    2 cycles

 The electronic state is 1-A.
 Alpha  occ. eigenvalues --  -11.28428 -11.24581 -11.24351 -11.24011 -11.23183
 Alpha  occ. eigenvalues --  -11.22918 -11.22461  -1.17599  -1.08030  -0.99403
 Alpha  occ. eigenvalues --   -0.90360  -0.82168  -0.79078  -0.72058  -0.66975
 Alpha  occ. eigenvalues --   -0.64514  -0.61150  -0.58007  -0.56467  -0.55829
 Alpha  occ. eigenvalues --   -0.53455  -0.51290  -0.48501  -0.47353  -0.46784
 Alpha  occ. eigenvalues --   -0.42940  -0.36010
 Alpha virt. eigenvalues --    0.03100   0.03211   0.03671   0.04219   0.05548
 Alpha virt. eigenvalues --    0.05620   0.06147   0.06581   0.07020   0.07105
 Alpha virt. eigenvalues --    0.08709   0.09770   0.10513   0.10918   0.12899

 Mulliken charges:
               1
     1  C   -0.346994
     2  C   -0.338611
     3  C   -0.164484
     4  C   -0.458763
     5  C    0.507310
     6  C    0.091804
     7  C   -0.206832
     8  H    0.113043
     9  H    0.158706
    10  H    0.138858
    11  H    0.118809
    12  H    0.164761
    13  H    0.093526
    14  H    0.171189
    15  H    0.148221
    16  H   -0.123450
    17  H   -0.095903
    18  H   -0.101549
    19  H    0.130360
 Sum of Mulliken charges =  -0.00000

 Dipole moment (field-independent basis, Debye):
    X=             -1.7333    Y=              0.6599    Z=             -1.5442  Tot=              2.4134

 Test job not archived.
 1\1\GINC-SE128\SP\RHF\Aug-CC-pVDZ\C7H12\OHZDE\09-Apr-2025\0\\#t hf aug
 -cc-pvdz iop(5/13=1,5/36=2,99/5=2) pseudo=read geom=check guess=(read,
 tcheck) scf=(maxcycle=1)\\title\\0,1\C,0,2.29588938,0.62864921,-0.8708
 9686\C,0,1.25797104,-0.47190118,-0.68049091\C,0,0.6692103,-0.51601122,
 0.73191577\C,0,-0.29267165,0.62862569,1.05582238\C,0,-1.69642673,0.467
 98931,0.49047529\C,0,-2.18527466,-0.50655445,-0.52195201\C,0,-2.555335
 93,-0.66224818,0.90963226\H,0,2.70946116,0.6096261,-1.88067811\H,0,3.1
 2522516,0.50844214,-0.16945145\H,0,1.87092079,1.62235942,-0.71321562\H

 Normal termination of Gaussian 16 at Wed Apr  9 03:40:35 2025.
