 Gaussian 16, Revision C.01,

 ----------------------------------------------------------------------
 #t hf aug-cc-pvdz symm=none int=(grid=ultrafine) guess=(read,tcheck) s
 table=(opt,rrhf)
 ----------------------------------------------------------------------
 -----
 title
 -----
 Symbolic Z-matrix:
 Charge =  0 Multiplicity = 1

 SCF Done:  E(RHF) =  -342.398751668     A.U. after   16 cycles
 Normal termination of Gaussian 16 at Wed Apr  9 19:13:57 2025.
 Gaussian 16:  ES64L-G16RevC.01  3-Jul-2019

 ----------------------------------------------------------------------
 #t hf aug-cc-pvdz iop(5/13=1,5/36=2,99/5=2) pseudo=read geom=check gue
 ss=(read,tcheck) scf=(maxcycle=1)
 ----------------------------------------------------------------------
 -----
 title
 -----
 Structure from the checkpoint file:  "Grambow2020_wb97xd3_008955_forward_mol1.chk"
 Charge =  0 Multiplicity = 1

                         Standard orientation:
 ---------------------------------------------------------------------
 Center     Atomic      Atomic             Coordinates (Angstroms)
 Number     Number       Type             X           Y           Z
 ---------------------------------------------------------------------
      1          8           0       -2.595066   -0.028351    0.066007
      2          6           0       -1.406452   -0.001835   -0.004532
      3          6           0       -0.365995    1.116884    0.040784
      4          6           0        0.703129    0.020883    0.089498
      5          6           0        1.910477   -0.018492    0.926230
      6          8           0        1.809140    0.048313   -0.821653
      7          6           0       -0.333858   -1.087473   -0.122944
      8          1           0       -0.416877    1.787617    0.897886
      9          1           0       -0.343054    1.701126   -0.881804
     10          1           0        2.479385    0.637252   -0.172941
     11          1           0        2.200832   -1.056014    1.124746
     12          1           0       -0.297941   -1.529531   -1.120704
     13          1           0       -0.378744   -1.879952    0.623771
 ---------------------------------------------------------------------

 SCF Done:  E(RHF) =  -342.743899386     A.U. after    2 cycles

 The electronic state is 1-A.
 Alpha  occ. eigenvalues --  -20.61929 -20.55524 -11.35441 -11.32962 -11.29361
 Alpha  occ. eigenvalues --  -11.26516 -11.26067  -1.52158  -1.49334  -1.16239
 Alpha  occ. eigenvalues --   -0.96666  -0.96194  -0.82543  -0.75154  -0.71911
 Alpha  occ. eigenvalues --   -0.69737  -0.66720  -0.63484  -0.59750  -0.59081
 Alpha  occ. eigenvalues --   -0.56362  -0.52962  -0.49719  -0.47643  -0.41424
 Alpha  occ. eigenvalues --   -0.38892
 Alpha virt. eigenvalues --    0.03353   0.03817   0.04287   0.04587   0.06218
 Alpha virt. eigenvalues --    0.06546   0.07911   0.08794   0.09753   0.10983
 Alpha virt. eigenvalues --    0.12075   0.13366   0.13965   0.14439   0.14621

 Mulliken charges:
               1
     1  O   -1.277908
     2  C    1.526620
     3  C   -0.654758
     4  C    1.731709
     5  C   -0.719110
     6  O   -1.534157
     7  C   -0.667264
     8  H    0.149590
     9  H    0.267767
    10  H    0.677722
    11  H    0.087454
    12  H    0.268698
    13  H    0.143636
 Sum of Mulliken charges =  -0.00000

 Dipole moment (field-independent basis, Debye):
    X=              1.8320    Y=             -0.5292    Z=             -0.1634  Tot=              1.9139

 Test job not archived.
 1\1\GINC-SE015\SP\RHF\Aug-CC-pVDZ\C5H6O2\OHZDE\09-Apr-2025\0\\#t hf au
 g-cc-pvdz iop(5/13=1,5/36=2,99/5=2) pseudo=read geom=check guess=(read
 ,tcheck) scf=(maxcycle=1)\\title\\0,1\O,0,-2.76463344,-0.56097873,0.09
 506258\C,0,-1.60866037,-0.29388279,-0.00918683\C,0,-0.79939391,0.99343
 857,0.14581501\C,0,0.45988913,0.13031102,0.01998641\C,0,1.69752948,0.2
 2868242,0.80607144\O,0,1.48769938,0.48241861,-0.91480432\C,0,-0.357299
 88,-1.12630283,-0.29946867\H,0,-0.92903375,1.53404389,1.08285049\H,0,-
 0.93977707,1.67668355,-0.69472179\H,0,2.06875746,1.10955702,-0.2176874

 Normal termination of Gaussian 16 at Wed Apr  9 19:14:01 2025.
