 Gaussian 16, Revision C.01,

 ----------------------------------------------------------------------
 #t hf aug-cc-pvdz symm=none int=(grid=ultrafine) guess=(read,tcheck) s
 table=(opt,rrhf)
 ----------------------------------------------------------------------
 -----
 title
 -----
 Symbolic Z-matrix:
 Charge =  0 Multiplicity = 1

 SCF Done:  E(RHF) =  -264.969062807     A.U. after   15 cycles
 Normal termination of Gaussian 16 at Wed Apr  9 15:51:56 2025.
 Gaussian 16:  ES64L-G16RevC.01  3-Jul-2019

 ----------------------------------------------------------------------
 #t hf aug-cc-pvdz iop(5/13=1,5/36=2,99/5=2) pseudo=read geom=check gue
 ss=(read,tcheck) scf=(maxcycle=1)
 ----------------------------------------------------------------------
 -----
 title
 -----
 Structure from the checkpoint file:  "Grambow2020_b97d3_006850_reverse_mol1.chk"
 Charge =  0 Multiplicity = 1

                         Standard orientation:
 ---------------------------------------------------------------------
 Center     Atomic      Atomic             Coordinates (Angstroms)
 Number     Number       Type             X           Y           Z
 ---------------------------------------------------------------------
      1          6           0       -2.128269    0.221273    0.029682
      2          7           0       -0.965908   -0.594635   -0.309202
      3          6           0        0.171909   -0.486271    0.390270
      4          6           0        1.310559   -1.406980    0.042299
      5          6           0        0.619385    1.692964    0.315904
      6          7           0        1.458236    1.255745   -0.415473
      7          1           0       -2.466148   -0.029818    1.042683
      8          1           0       -2.936077    0.009472   -0.678003
      9          1           0       -1.841281    1.284972    0.002294
     10          1           0       -0.848536   -0.814841   -1.296181
     11          1           0        0.033896   -0.260441    1.444139
     12          1           0        2.234060   -1.072139    0.519444
     13          1           0        1.057984   -2.416315    0.408945
     14          1           0        1.478301   -1.454576   -1.039524
 ---------------------------------------------------------------------

 SCF Done:  E(RHF) =  -265.241233012     A.U. after    2 cycles

 The electronic state is 1-A.
 Alpha  occ. eigenvalues --  -15.56960 -15.45858 -11.38321 -11.29226 -11.26891
 Alpha  occ. eigenvalues --  -11.20017  -1.29964  -1.16373  -1.06174  -0.96630
 Alpha  occ. eigenvalues --   -0.89157  -0.72803  -0.72059  -0.67000  -0.62496
 Alpha  occ. eigenvalues --   -0.59353  -0.58753  -0.58292  -0.56892  -0.51119
 Alpha  occ. eigenvalues --   -0.44543  -0.42604  -0.42086
 Alpha virt. eigenvalues --    0.02573   0.03500   0.03663   0.04918   0.05269
 Alpha virt. eigenvalues --    0.05532   0.07037   0.08343   0.08848   0.10754
 Alpha virt. eigenvalues --    0.11938   0.12576   0.13079   0.14344   0.14750

 Mulliken charges:
               1
     1  C   -0.394109
     2  N    0.781972
     3  C   -0.773740
     4  C   -0.363857
     5  C   -1.005154
     6  N    0.294392
     7  H    0.181217
     8  H    0.060312
     9  H    0.278246
    10  H    0.210659
    11  H    0.043019
    12  H    0.245169
    13  H    0.232313
    14  H    0.209561
 Sum of Mulliken charges =   0.00000

 Dipole moment (field-independent basis, Debye):
    X=             -3.8271    Y=             -5.3957    Z=              0.5117  Tot=              6.6349

 Test job not archived.
 1\1\GINC-SE087\SP\RHF\Aug-CC-pVDZ\C4H8N2\OHZDE\09-Apr-2025\0\\#t hf au
 g-cc-pvdz iop(5/13=1,5/36=2,99/5=2) pseudo=read geom=check guess=(read
 ,tcheck) scf=(maxcycle=1)\\title\\0,1\C,0,1.9644114,0.00277648,0.32781
 9\N,0,0.59714846,-0.49936581,0.42818831\C,0,-0.34862846,-0.08007043,-0
 .42347553\C,0,-1.72064953,-0.68983573,-0.3183322\C,0,-0.24913069,2.137
 35665,-0.25630327\N,0,-1.27779417,1.90514179,0.3073194\H,0,2.39031047,
 -0.29236285,-0.63907478\H,0,2.56807591,-0.4322716,1.13066004\H,0,1.948
 93926,1.10296511,0.39038818\H,0,0.26952866,-0.71511581,1.36760895\H,0,

 Normal termination of Gaussian 16 at Wed Apr  9 15:52:00 2025.
