 Gaussian 16, Revision C.01,

 ----------------------------------------------------------------------
 #t hf aug-cc-pvdz symm=none int=(grid=ultrafine) guess=(read,tcheck) s
 table=(opt,rrhf)
 ----------------------------------------------------------------------
 -----
 title
 -----
 Symbolic Z-matrix:
 Charge =  0 Multiplicity = 1

 SCF Done:  E(RHF) =  -271.223199608     A.U. after   12 cycles

 1\1\GINC-SE229\Stability\RHF\Aug-CC-pVDZ\C5H12O1\OHZDE\09-Apr-2025\0\\
 #t hf aug-cc-pvdz symm=none int=(grid=ultrafine) guess=(read,tcheck) s
 table=(opt,rrhf)\\title\\0,1\C,0,-2.56701018,0.01235703,0.23115335\C,0
 ,-1.2764908,-0.18552234,-0.57159214\C,0,-0.00847621,0.16120108,0.22578
 738\O,0,0.07556851,-0.60832102,1.43748687\C,0,1.26657857,0.01618367,-0
 .62100767\C,0,2.54095951,0.41062675,0.13397422\H,0,-3.44866294,-0.2981
 0488,-0.34674333\H,0,-2.5333257,-0.57156824,1.15973423\H,0,-2.69690301
 ,1.06933898,0.50671761\H,0,-1.19902516,-1.23424641,-0.9102235\H,0,-1.3

 Normal termination of Gaussian 16 at Wed Apr  9 15:50:05 2025.
 Gaussian 16:  ES64L-G16RevC.01  3-Jul-2019

 ----------------------------------------------------------------------
 #t hf aug-cc-pvdz iop(5/13=1,5/36=2,99/5=2) pseudo=read geom=check gue
 ss=(read,tcheck) scf=(maxcycle=1)
 ----------------------------------------------------------------------
 -----
 title
 -----
 Structure from the checkpoint file:  "Grambow2020_b97d3_006797_forward_mol2.chk"
 Charge =  0 Multiplicity = 1

                         Standard orientation:
 ---------------------------------------------------------------------
 Center     Atomic      Atomic             Coordinates (Angstroms)
 Number     Number       Type             X           Y           Z
 ---------------------------------------------------------------------
      1          6           0        2.562206   -0.032719    0.257609
      2          6           0        1.276045   -0.695095   -0.248400
      3          6           0        0.000211    0.023114    0.220977
      4          8           0       -0.000666    1.404496   -0.178054
      5          6           0       -1.275487   -0.696967   -0.245858
      6          6           0       -2.562188   -0.032558    0.256728
      7          1           0        3.454256   -0.535122   -0.141767
      8          1           0        2.591707    1.023036   -0.040512
      9          1           0        2.614569   -0.070478    1.355722
     10          1           0        1.274102   -0.722238   -1.352824
     11          1           0        1.234768   -1.745157    0.082861
     12          1           0        0.001516    0.069555    1.321410
     13          1           0       -0.004293    1.405322   -1.154965
     14          1           0       -1.272766   -0.728673   -1.350147
     15          1           0       -1.233570   -1.745538    0.089850
     16          1           0       -3.453742   -0.541583   -0.135196
     17          1           0       -2.610946   -0.059783    1.355341
     18          1           0       -2.594989    1.020046   -0.051680
 ---------------------------------------------------------------------

 SCF Done:  E(RHF) =  -271.519340843     A.U. after    2 cycles

 The electronic state is 1-A.
 Alpha  occ. eigenvalues --  -20.54398 -11.28340 -11.23263 -11.23234 -11.22250
 Alpha  occ. eigenvalues --  -11.22238  -1.43757  -1.07082  -1.01929  -0.91684
 Alpha  occ. eigenvalues --   -0.82734  -0.80190  -0.65726  -0.64303  -0.63511
 Alpha  occ. eigenvalues --   -0.60120  -0.56323  -0.55202  -0.54174  -0.51154
 Alpha  occ. eigenvalues --   -0.49713  -0.48740  -0.48607  -0.46171  -0.42748
 Alpha virt. eigenvalues --    0.03413   0.03687   0.03829   0.04408   0.05731
 Alpha virt. eigenvalues --    0.06190   0.06494   0.06642   0.08870   0.08889
 Alpha virt. eigenvalues --    0.09606   0.09992   0.12111   0.14288   0.14321

 Mulliken charges:
               1
     1  C   -0.430664
     2  C   -0.267109
     3  C    0.835088
     4  O   -1.343510
     5  C   -0.267875
     6  C   -0.429819
     7  H    0.138523
     8  H    0.218282
     9  H    0.174237
    10  H    0.120514
    11  H    0.136346
    12  H    0.036073
    13  H    0.290761
    14  H    0.122036
    15  H    0.135364
    16  H    0.138907
    17  H    0.174999
    18  H    0.217848
 Sum of Mulliken charges =  -0.00000

 Dipole moment (field-independent basis, Debye):
    X=             -0.0052    Y=             -1.3914    Z=             -0.9292  Tot=              1.6732

 Test job not archived.
 1\1\GINC-SE229\SP\RHF\Aug-CC-pVDZ\C5H12O1\OHZDE\09-Apr-2025\0\\#t hf a
 ug-cc-pvdz iop(5/13=1,5/36=2,99/5=2) pseudo=read geom=check guess=(rea
 d,tcheck) scf=(maxcycle=1)\\title\\0,1\C,0,-2.56701018,0.01235703,0.23
 115335\C,0,-1.2764908,-0.18552234,-0.57159214\C,0,-0.00847621,0.161201
 08,0.22578738\O,0,0.07556851,-0.60832102,1.43748687\C,0,1.26657857,0.0
 1618367,-0.62100767\C,0,2.54095951,0.41062675,0.13397422\H,0,-3.448662
 94,-0.29810488,-0.34674333\H,0,-2.5333257,-0.57156824,1.15973423\H,0,-
 2.69690301,1.06933898,0.50671761\H,0,-1.19902516,-1.23424641,-0.910223

 Normal termination of Gaussian 16 at Wed Apr  9 15:50:11 2025.
