 Gaussian 16, Revision C.01,

 ----------------------------------------------------------------------
 #t hf aug-cc-pvdz symm=none int=(grid=ultrafine) guess=(read,tcheck) s
 table=(opt,rrhf)
 ----------------------------------------------------------------------
 -----
 title
 -----
 Symbolic Z-matrix:
 Charge =  0 Multiplicity = 1

 SCF Done:  E(RHF) =  -306.519703804     A.U. after   16 cycles
 Normal termination of Gaussian 16 at Wed Apr  9 19:02:04 2025.
 Gaussian 16:  ES64L-G16RevC.01  3-Jul-2019

 ----------------------------------------------------------------------
 #t hf aug-cc-pvdz iop(5/13=1,5/36=2,99/5=2) pseudo=read geom=check gue
 ss=(read,tcheck) scf=(maxcycle=1)
 ----------------------------------------------------------------------
 -----
 title
 -----
 Structure from the checkpoint file:  "Grambow2020_wb97xd3_008460_reverse_mol1.chk"
 Charge =  0 Multiplicity = 1

                         Standard orientation:
 ---------------------------------------------------------------------
 Center     Atomic      Atomic             Coordinates (Angstroms)
 Number     Number       Type             X           Y           Z
 ---------------------------------------------------------------------
      1          6           0        1.169911   -0.581218   -0.861832
      2          6           0        0.812929    0.862938   -0.418479
      3          6           0       -0.625144    1.170360   -0.198871
      4          8           0       -1.568355    0.322364    0.054432
      5          6           0       -1.510660   -1.009141   -0.020453
      6          6           0        0.943316   -0.943409    0.598565
      7          6           0        1.011168    0.354180    0.994592
      8          1           0        0.581998   -1.040896   -1.654936
      9          1           0        2.224136   -0.634839   -1.138637
     10          1           0        1.364809    1.710263   -0.822706
     11          1           0       -0.907811    2.177500    0.084690
     12          1           0       -1.055242   -1.451745   -0.887924
     13          1           0       -2.432545   -1.445002    0.342118
     14          1           0        0.995768   -1.880085    1.133529
     15          1           0        0.966604    0.863626    1.947288
 ---------------------------------------------------------------------

 SCF Done:  E(RHF) =  -306.837039429     A.U. after    2 cycles

 The electronic state is 1-A.
 Alpha  occ. eigenvalues --  -20.63928 -11.32357 -11.26571 -11.25452 -11.24876
 Alpha  occ. eigenvalues --  -11.24709 -11.23531  -1.56794  -1.18137  -1.02105
 Alpha  occ. eigenvalues --   -0.92045  -0.90560  -0.79520  -0.73815  -0.72329
 Alpha  occ. eigenvalues --   -0.68971  -0.67070  -0.62839  -0.59761  -0.56649
 Alpha  occ. eigenvalues --   -0.55276  -0.50105  -0.48688  -0.46509  -0.35435
 Alpha  occ. eigenvalues --   -0.24816
 Alpha virt. eigenvalues --    0.03233   0.03673   0.03922   0.04203   0.05772
 Alpha virt. eigenvalues --    0.05875   0.06495   0.08431   0.08524   0.11092
 Alpha virt. eigenvalues --    0.11810   0.12708   0.13239   0.13894   0.13996

 Mulliken charges:
               1
     1  C   -0.206697
     2  C    0.212342
     3  C    0.959503
     4  O   -1.152037
     5  C    0.373197
     6  C    0.525899
     7  C   -0.067511
     8  H    0.016620
     9  H    0.032968
    10  H   -0.124837
    11  H   -0.090121
    12  H    0.005689
    13  H   -0.086610
    14  H   -0.202624
    15  H   -0.195780
 Sum of Mulliken charges =  -0.00000

 Dipole moment (field-independent basis, Debye):
    X=              0.9741    Y=              1.0194    Z=             -0.6547  Tot=              1.5546

 Test job not archived.
 1\1\GINC-SE125\SP\RHF\Aug-CC-pVDZ\C6H8O1\OHZDE\09-Apr-2025\0\\#t hf au
 g-cc-pvdz iop(5/13=1,5/36=2,99/5=2) pseudo=read geom=check guess=(read
 ,tcheck) scf=(maxcycle=1)\\title\\0,1\C,0,0.69356412,1.20297347,0.1839
 9436\C,0,1.2062415,-0.23758438,-0.08347627\C,0,0.3866187,-1.35966172,0
 .44562897\O,0,-0.8703699,-1.32480357,0.74840148\C,0,-1.65687894,-0.250
 71949,0.84633037\C,0,-0.29337325,0.91761945,-0.93842048\C,0,0.41833018
 ,-0.15399804,-1.37464389\H,0,0.35059526,1.45397581,1.18665503\H,0,1.45
 293931,1.9284646,-0.11248406\H,0,2.27384972,-0.45078126,-0.05723649\H,

 Normal termination of Gaussian 16 at Wed Apr  9 19:02:11 2025.
