 Gaussian 16, Revision C.01,

 ----------------------------------------------------------------------
 #t hf aug-cc-pvdz symm=none int=(grid=ultrafine) guess=(read,tcheck) s
 table=(opt,rrhf)
 ----------------------------------------------------------------------
 -----
 title
 -----
 Symbolic Z-matrix:
 Charge =  0 Multiplicity = 1

 SCF Done:  E(RHF) =  -306.540284551     A.U. after   15 cycles
 Normal termination of Gaussian 16 at Wed Apr  9 18:52:49 2025.
 Gaussian 16:  ES64L-G16RevC.01  3-Jul-2019

 ----------------------------------------------------------------------
 #t hf aug-cc-pvdz iop(5/13=1,5/36=2,99/5=2) pseudo=read geom=check gue
 ss=(read,tcheck) scf=(maxcycle=1)
 ----------------------------------------------------------------------
 -----
 title
 -----
 Structure from the checkpoint file:  "Grambow2020_wb97xd3_008161_reverse_mol1.chk"
 Charge =  0 Multiplicity = 1

                         Standard orientation:
 ---------------------------------------------------------------------
 Center     Atomic      Atomic             Coordinates (Angstroms)
 Number     Number       Type             X           Y           Z
 ---------------------------------------------------------------------
      1          8           0        2.056444   -0.333572    0.096622
      2          6           0        0.713912   -0.032950   -0.006944
      3          6           0        0.132785    1.140118   -0.821917
      4          6           0       -0.979693    1.060378    0.203419
      5          6           0       -1.639354   -0.887181   -0.304360
      6          6           0       -0.261663   -1.155660   -0.090274
      7          6           0       -0.145237    0.387639    1.129528
      8          1           0        2.313539   -0.846881   -0.673565
      9          1           0       -0.104393    0.986159   -1.875691
     10          1           0        0.774314    2.009757   -0.674083
     11          1           0       -1.849241    1.683621    0.345908
     12          1           0       -2.321722   -0.652897    0.493493
     13          1           0       -2.135568   -1.500890   -1.067216
     14          1           0        0.154131   -2.166570   -0.141180
     15          1           0       -0.207110    0.082209    2.162644
 ---------------------------------------------------------------------

 SCF Done:  E(RHF) =  -306.859713164     A.U. after    2 cycles

 The electronic state is 1-A.
 Alpha  occ. eigenvalues --  -20.56432 -11.30534 -11.27242 -11.25545 -11.24675
 Alpha  occ. eigenvalues --  -11.24166 -11.23638  -1.47592  -1.20909  -1.00733
 Alpha  occ. eigenvalues --   -0.91766  -0.90190  -0.78269  -0.73700  -0.72201
 Alpha  occ. eigenvalues --   -0.66645  -0.63268  -0.61008  -0.58400  -0.55769
 Alpha  occ. eigenvalues --   -0.54058  -0.51329  -0.47468  -0.44817  -0.32933
 Alpha  occ. eigenvalues --   -0.31275
 Alpha virt. eigenvalues --    0.03201   0.03692   0.04008   0.04256   0.05734
 Alpha virt. eigenvalues --    0.06083   0.06396   0.07049   0.08968   0.11490
 Alpha virt. eigenvalues --    0.12193   0.12495   0.12577   0.14347   0.14717

 Mulliken charges:
               1
     1  O   -1.604611
     2  C    1.814608
     3  C   -0.111993
     4  C    0.358332
     5  C   -0.063482
     6  C    0.097920
     7  C   -0.176518
     8  H    0.202568
     9  H    0.019153
    10  H    0.140556
    11  H   -0.248529
    12  H    0.080253
    13  H   -0.098108
    14  H   -0.184924
    15  H   -0.225225
 Sum of Mulliken charges =  -0.00000

 Dipole moment (field-independent basis, Debye):
    X=             -0.5191    Y=             -0.6539    Z=             -1.0205  Tot=              1.3185

 Test job not archived.
 1\1\GINC-SE116\SP\RHF\Aug-CC-pVDZ\C6H8O1\OHZDE\09-Apr-2025\0\\#t hf au
 g-cc-pvdz iop(5/13=1,5/36=2,99/5=2) pseudo=read geom=check guess=(read
 ,tcheck) scf=(maxcycle=1)\\title\\0,1\O,0,2.0639594,0.91121733,-0.5220
 4\C,0,0.87019657,0.27352807,-0.25413171\C,0,0.73697402,-1.19124344,0.2
 0919684\C,0,-0.61159958,-1.09170697,-0.47397431\C,0,-1.41828428,0.3989
 1056,0.79618224\C,0,-0.21626397,1.04773175,0.4087259\C,0,-0.18639202,0
 .00508143,-1.26316815\H,0,2.43434289,1.22437446,0.30712855\H,0,0.77627
 632,-1.41432145,1.2764775\H,0,1.44753735,-1.79467288,-0.35707105\H,0,-

 Normal termination of Gaussian 16 at Wed Apr  9 18:52:54 2025.
