 Gaussian 16, Revision C.01,

 ----------------------------------------------------------------------
 #t hf aug-cc-pvdz symm=none int=(grid=ultrafine) guess=(read,tcheck) s
 table=(opt,rrhf)
 ----------------------------------------------------------------------
 -----
 title
 -----
 Symbolic Z-matrix:
 Charge =  0 Multiplicity = 1

 SCF Done:  E(RHF) =  -375.781025395     A.U. after   14 cycles
 Normal termination of Gaussian 16 at Wed Apr  9 03:46:27 2025.
 Gaussian 16:  ES64L-G16RevC.01  3-Jul-2019

 ----------------------------------------------------------------------
 #t hf aug-cc-pvdz iop(5/13=1,5/36=2,99/5=2) pseudo=read geom=check gue
 ss=(read,tcheck) scf=(maxcycle=1)
 ----------------------------------------------------------------------
 -----
 title
 -----
 Structure from the checkpoint file:  "Grambow2020_wb97xd3_007856_forward_mol2.chk"
 Charge =  0 Multiplicity = 1

                         Standard orientation:
 ---------------------------------------------------------------------
 Center     Atomic      Atomic             Coordinates (Angstroms)
 Number     Number       Type             X           Y           Z
 ---------------------------------------------------------------------
      1          7           0        0.917305    1.334992   -0.198069
      2          6           0        1.315746    0.067670    0.039379
      3          8           0        2.458067   -0.319655   -0.082345
      4          6           0        0.218887   -0.887890    0.512824
      5          8           0       -0.865777   -1.033572   -0.409414
      6          6           0       -1.899870   -0.204529   -0.325050
      7          7           0       -1.935006    0.812397    0.422782
      8          1           0        1.612321    2.006484   -0.471306
      9          1           0       -0.018462    1.623720    0.045966
     10          1           0       -0.166614   -0.562634    1.482196
     11          1           0        0.668183   -1.873346    0.591885
     12          1           0       -2.691802   -0.537649   -0.997100
     13          1           0       -2.826621    1.286007    0.346513
 ---------------------------------------------------------------------

 SCF Done:  E(RHF) =  -376.158806848     A.U. after    2 cycles

 The electronic state is 1-A.
 Alpha  occ. eigenvalues --  -20.60738 -20.50962 -15.51782 -15.50701 -11.37290
 Alpha  occ. eigenvalues --  -11.35781 -11.31306  -1.54501  -1.46067  -1.23404
 Alpha  occ. eigenvalues --   -1.22173  -1.02410  -0.87098  -0.81682  -0.78250
 Alpha  occ. eigenvalues --   -0.76761  -0.71536  -0.69505  -0.64026  -0.60827
 Alpha  occ. eigenvalues --   -0.59056  -0.57713  -0.53333  -0.50615  -0.46354
 Alpha  occ. eigenvalues --   -0.43226  -0.41781
 Alpha virt. eigenvalues --    0.02710   0.04231   0.04836   0.05226   0.06266
 Alpha virt. eigenvalues --    0.07703   0.08404   0.10372   0.10626   0.12022
 Alpha virt. eigenvalues --    0.13237   0.13992   0.14462   0.14637   0.15517

 Mulliken charges:
               1
     1  N    0.689189
     2  C    0.407253
     3  O   -1.231571
     4  C    0.301595
     5  O   -1.198065
     6  C   -0.065263
     7  N    0.548232
     8  H    0.075095
     9  H    0.079782
    10  H    0.373577
    11  H   -0.055946
    12  H    0.008504
    13  H    0.067617
 Sum of Mulliken charges =  -0.00000

 Dipole moment (field-independent basis, Debye):
    X=             -4.4013    Y=              0.9453    Z=             -0.2351  Tot=              4.5078

 Test job not archived.
 1\1\GINC-SE015\SP\RHF\Aug-CC-pVDZ\C3H6N2O2\OHZDE\09-Apr-2025\0\\#t hf
 aug-cc-pvdz iop(5/13=1,5/36=2,99/5=2) pseudo=read geom=check guess=(re
 ad,tcheck) scf=(maxcycle=1)\\title\\0,1\N,0,-1.51414699,0.34649421,-0.
 68203862\C,0,-1.4487876,-0.1474138,0.57216384\O,0,-2.39668922,-0.21914
 939,1.32454145\C,0,-0.07306206,-0.6560734,1.0068939\O,0,0.95428119,0.3
 3976462,0.97354516\C,0,1.64920383,0.51232106,-0.14497434\N,0,1.3714241
 7,-0.04102614,-1.24555144\H,0,-2.40701635,0.65396478,-1.02387625\H,0,-
 0.72149289,0.259046,-1.30060914\H,0,0.22262211,-1.50723763,0.38869181\

 Normal termination of Gaussian 16 at Wed Apr  9 03:46:31 2025.
