 Gaussian 16, Revision C.01,

 ----------------------------------------------------------------------
 #t hf aug-cc-pvdz symm=none int=(grid=ultrafine) guess=(read,tcheck) s
 table=(opt,rrhf)
 ----------------------------------------------------------------------
 -----
 title
 -----
 Symbolic Z-matrix:
 Charge =  0 Multiplicity = 1

 SCF Done:  E(RHF) =  -264.879633233     A.U. after   18 cycles
 Normal termination of Gaussian 16 at Wed Apr  9 15:41:55 2025.
 Gaussian 16:  ES64L-G16RevC.01  3-Jul-2019

 ----------------------------------------------------------------------
 #t hf aug-cc-pvdz iop(5/13=1,5/36=2,99/5=2) pseudo=read geom=check gue
 ss=(read,tcheck) scf=(maxcycle=1)
 ----------------------------------------------------------------------
 -----
 title
 -----
 Structure from the checkpoint file:  "Grambow2020_b97d3_006628_forward_mol1.chk"
 Charge =  0 Multiplicity = 1

                         Standard orientation:
 ---------------------------------------------------------------------
 Center     Atomic      Atomic             Coordinates (Angstroms)
 Number     Number       Type             X           Y           Z
 ---------------------------------------------------------------------
      1          6           0       -2.293552    0.367499   -0.057551
      2          6           0       -1.236741   -0.759625   -0.231737
      3          6           0       -0.028040   -0.427976    0.582303
      4          7           0        1.870724   -0.846337   -0.174900
      5          6           0        0.985177    0.467088    0.097033
      6          7           0        1.149417    1.662355   -0.111417
      7          1           0       -1.860102    1.330774   -0.351442
      8          1           0       -2.634046    0.440113    0.983815
      9          1           0       -3.164372    0.152287   -0.693164
     10          1           0       -1.667590   -1.723197    0.076140
     11          1           0       -0.967350   -0.817251   -1.296149
     12          1           0       -0.051478   -0.682867    1.647500
     13          1           0        1.979070   -1.201865   -1.130190
     14          1           0        2.663816   -1.092035    0.427418
 ---------------------------------------------------------------------

 SCF Done:  E(RHF) =  -265.147937198     A.U. after    2 cycles

 The electronic state is 1-A.
 Alpha  occ. eigenvalues --  -15.52685 -15.42261 -11.37712 -11.28705 -11.27270
 Alpha  occ. eigenvalues --  -11.26524  -1.20394  -1.11085  -1.09992  -0.97839
 Alpha  occ. eigenvalues --   -0.87577  -0.77371  -0.70937  -0.68026  -0.63787
 Alpha  occ. eigenvalues --   -0.60601  -0.57726  -0.55184  -0.53505  -0.53064
 Alpha  occ. eigenvalues --   -0.45156  -0.41078  -0.34486
 Alpha virt. eigenvalues --    0.01842   0.02373   0.03203   0.04057   0.04525
 Alpha virt. eigenvalues --    0.05746   0.05889   0.08198   0.08295   0.10963
 Alpha virt. eigenvalues --    0.11585   0.12468   0.12567   0.14220   0.14622

 Mulliken charges:
               1
     1  C   -0.410195
     2  C   -0.463542
     3  C    0.646817
     4  N    0.118640
     5  C   -1.964347
     6  N    0.887279
     7  H    0.248594
     8  H    0.175454
     9  H    0.160951
    10  H    0.211316
    11  H    0.210212
    12  H   -0.020118
    13  H    0.101775
    14  H    0.097163
 Sum of Mulliken charges =  -0.00000

 Dipole moment (field-independent basis, Debye):
    X=             -3.6668    Y=             -6.4051    Z=              1.2109  Tot=              7.4791

 Test job not archived.
 1\1\GINC-SE009\SP\RHF\Aug-CC-pVDZ\C4H8N2\OHZDE\09-Apr-2025\0\\#t hf au
 g-cc-pvdz iop(5/13=1,5/36=2,99/5=2) pseudo=read geom=check guess=(read
 ,tcheck) scf=(maxcycle=1)\\title\\0,1\C,0,-2.00241985,0.2377595,0.0426
 0181\C,0,-0.76651974,-0.69560771,-0.09514629\C,0,0.40212545,-0.0655964
 3,0.59112249\N,0,2.30196743,-0.22112797,-0.25746452\C,0,1.20497552,0.9
 357516,-0.05383411\N,0,1.13414525,2.11038734,-0.39192159\H,0,-1.770811
 32,1.22395665,-0.37682886\H,0,-2.29395109,0.36417455,1.0936391\H,0,-2.
 85140662,-0.19841185,-0.50294685\H,0,-0.99476777,-1.68007521,0.3380016

 Normal termination of Gaussian 16 at Wed Apr  9 15:41:59 2025.
