 Gaussian 16, Revision C.01,

 ----------------------------------------------------------------------
 #t hf aug-cc-pvdz symm=none int=(grid=ultrafine) guess=(read,tcheck) s
 table=(opt,rrhf)
 ----------------------------------------------------------------------
 -----
 title
 -----
 Symbolic Z-matrix:
 Charge =  0 Multiplicity = 1

 SCF Done:  E(RHF) =  -286.673501983     A.U. after   17 cycles
 Normal termination of Gaussian 16 at Wed Apr  9 18:43:46 2025.
 Gaussian 16:  ES64L-G16RevC.01  3-Jul-2019

 ----------------------------------------------------------------------
 #t hf aug-cc-pvdz iop(5/13=1,5/36=2,99/5=2) pseudo=read geom=check gue
 ss=(read,tcheck) scf=(maxcycle=1)
 ----------------------------------------------------------------------
 -----
 title
 -----
 Structure from the checkpoint file:  "Grambow2020_wb97xd3_008002_reverse_mol1.chk"
 Charge =  0 Multiplicity = 1

                         Standard orientation:
 ---------------------------------------------------------------------
 Center     Atomic      Atomic             Coordinates (Angstroms)
 Number     Number       Type             X           Y           Z
 ---------------------------------------------------------------------
      1          6           0        3.488823    0.413749   -0.236643
      2          6           0        2.273491   -0.150912    0.104053
      3          6           0        1.029234   -0.211842    0.419818
      4          6           0       -0.184849   -0.614557   -0.310954
      5          6           0       -1.474920   -0.261248    0.386675
      6          6           0       -2.188976    0.995952    0.097704
      7          7           0       -2.673217   -0.274880   -0.440938
      8          1           0        3.574527    1.468459   -0.477167
      9          1           0        4.398011   -0.168829   -0.180458
     10          1           0        2.971901   -0.401107    1.012494
     11          1           0       -0.134373   -1.702404   -0.442973
     12          1           0       -0.193207   -0.200854   -1.329166
     13          1           0       -1.553405   -0.639454    1.402165
     14          1           0       -1.790277    1.680230   -0.643283
     15          1           0       -2.742589    1.467663    0.901694
     16          1           0       -3.474892   -0.606396    0.079346
 ---------------------------------------------------------------------

 SCF Done:  E(RHF) =  -286.980685015     A.U. after    2 cycles

 The electronic state is 1-A.
 Alpha  occ. eigenvalues --  -15.49393 -11.28704 -11.25976 -11.25733 -11.25553
 Alpha  occ. eigenvalues --  -11.24652 -11.24082  -1.26583  -1.11155  -1.03281
 Alpha  occ. eigenvalues --   -0.92562  -0.88823  -0.80715  -0.73479  -0.71869
 Alpha  occ. eigenvalues --   -0.64877  -0.63690  -0.62042  -0.58963  -0.54775
 Alpha  occ. eigenvalues --   -0.51655  -0.50482  -0.47988  -0.42120  -0.39502
 Alpha  occ. eigenvalues --   -0.29505
 Alpha virt. eigenvalues --    0.03137   0.03798   0.04003   0.04740   0.05410
 Alpha virt. eigenvalues --    0.05824   0.06568   0.06860   0.07068   0.07314
 Alpha virt. eigenvalues --    0.10238   0.11428   0.12676   0.12846   0.13718

 Mulliken charges:
               1
     1  C   -0.121452
     2  C    0.234288
     3  C   -0.113568
     4  C   -0.845868
     5  C   -0.438973
     6  C    0.351189
     7  N    0.427556
     8  H   -0.077720
     9  H   -0.096769
    10  H    0.348819
    11  H    0.320232
    12  H    0.183379
    13  H   -0.198955
    14  H   -0.086280
    15  H   -0.098725
    16  H    0.212846
 Sum of Mulliken charges =  -0.00000

 Dipole moment (field-independent basis, Debye):
    X=              1.3498    Y=              0.4095    Z=              0.8682  Tot=              1.6563

 Test job not archived.
 1\1\GINC-SE232\SP\RHF\Aug-CC-pVDZ\C6H9N1\OHZDE\09-Apr-2025\0\\#t hf au
 g-cc-pvdz iop(5/13=1,5/36=2,99/5=2) pseudo=read geom=check guess=(read
 ,tcheck) scf=(maxcycle=1)\\title\\0,1\C,0,2.94113994,0.83077246,1.7205
 8393\C,0,1.78145296,0.12987438,1.44523571\C,0,0.57743796,-0.08248194,1
 .04919609\C,0,-0.00016637,-0.73445781,-0.13887279\C,0,-1.4812471,-0.50
 683382,-0.31318053\C,0,-1.99983265,0.59362379,-1.14624365\N,0,-2.01854
 903,-0.78379331,-1.63818898\H,0,3.07388768,1.85599744,1.39058147\H,0,3
 .70481636,0.39879649,2.35254268\H,0,1.87665877,0.08137453,2.61323456\H

 Normal termination of Gaussian 16 at Wed Apr  9 18:43:51 2025.
