 Gaussian 16, Revision C.01,

 ----------------------------------------------------------------------
 #t hf aug-cc-pvdz symm=none int=(grid=ultrafine) guess=(read,tcheck) s
 table=(opt,rrhf)
 ----------------------------------------------------------------------
 -----
 title
 -----
 Symbolic Z-matrix:
 Charge =  0 Multiplicity = 1

 SCF Done:  E(RHF) =  -306.653876647     A.U. after   14 cycles
 Normal termination of Gaussian 16 at Wed Apr  9 18:19:17 2025.
 Gaussian 16:  ES64L-G16RevC.01  3-Jul-2019

 ----------------------------------------------------------------------
 #t hf aug-cc-pvdz iop(5/13=1,5/36=2,99/5=2) pseudo=read geom=check gue
 ss=(read,tcheck) scf=(maxcycle=1)
 ----------------------------------------------------------------------
 -----
 title
 -----
 Structure from the checkpoint file:  "Grambow2020_wb97xd3_007307_reverse_mol2.chk"
 Charge =  0 Multiplicity = 1

                         Standard orientation:
 ---------------------------------------------------------------------
 Center     Atomic      Atomic             Coordinates (Angstroms)
 Number     Number       Type             X           Y           Z
 ---------------------------------------------------------------------
      1          6           0       -2.302032   -1.758332   -0.133556
      2          6           0       -2.396750   -0.477686    0.183934
      3          6           0        0.175165    1.604055   -0.030382
      4          8           0       -0.504380    2.547299   -0.041390
      5          6           0        1.090484    0.692892   -0.007610
      6          6           0        1.348717   -0.605022   -0.019198
      7          6           0        2.712390   -1.201345    0.032964
      8          1           0        0.517953   -1.312550   -0.068191
      9          1           0       -2.361397   -2.094766   -1.162657
     10          1           0       -2.168425   -2.524297    0.622399
     11          1           0       -2.342541   -0.140132    1.212901
     12          1           0       -2.538218    0.289614   -0.568434
     13          1           0        3.483764   -0.435500    0.077902
     14          1           0        2.797675   -1.855830    0.905328
     15          1           0        2.878379   -1.832302   -0.845038
 ---------------------------------------------------------------------

 SCF Done:  E(RHF) =  -306.968696467     A.U. after    2 cycles

 The electronic state is 1-A.
 Alpha  occ. eigenvalues --  -20.60076 -11.38311 -11.30632 -11.25197 -11.24563
 Alpha  occ. eigenvalues --  -11.24414 -11.23121  -1.54217  -1.10815  -1.04530
 Alpha  occ. eigenvalues --   -1.00957  -0.87847  -0.80017  -0.73131  -0.70195
 Alpha  occ. eigenvalues --   -0.65716  -0.63709  -0.61160  -0.60785  -0.59198
 Alpha  occ. eigenvalues --   -0.59105  -0.55597  -0.51625  -0.39626  -0.39306
 Alpha  occ. eigenvalues --   -0.34835
 Alpha virt. eigenvalues --    0.02907   0.03836   0.04067   0.04872   0.04974
 Alpha virt. eigenvalues --    0.06031   0.06279   0.06956   0.07350   0.09279
 Alpha virt. eigenvalues --    0.10078   0.11901   0.12488   0.13413   0.13710

 Mulliken charges:
               1
     1  C    0.108467
     2  C    0.150732
     3  C    0.302638
     4  O   -1.000686
     5  C    0.602521
     6  C    0.324541
     7  C   -0.768229
     8  H   -0.060735
     9  H   -0.075506
    10  H   -0.089617
    11  H   -0.059283
    12  H   -0.050262
    13  H    0.144546
    14  H    0.234719
    15  H    0.236155
 Sum of Mulliken charges =   0.00000

 Dipole moment (field-independent basis, Debye):
    X=              0.8727    Y=             -3.2829    Z=             -0.0033  Tot=              3.3969

 Test job not archived.
 1\1\GINC-SE224\SP\RHF\Aug-CC-pVDZ\C6H8O1\OHZDE\09-Apr-2025\0\\#t hf au
 g-cc-pvdz iop(5/13=1,5/36=2,99/5=2) pseudo=read geom=check guess=(read
 ,tcheck) scf=(maxcycle=1)\\title\\0,1\C,0,-2.29389396,-0.94751794,-0.6
 367658\C,0,-2.38408912,0.25506028,-0.09317062\C,0,0.28027127,2.1181716
 8,0.55823123\O,0,-0.33895919,3.10038665,0.61671317\C,0,1.1302308,1.145
 48852,0.55831573\C,0,1.32309146,-0.14455894,0.33475266\C,0,2.62276964,
 -0.85192418,0.50326873\H,0,0.48278439,-0.75873508,0.00333591\H,0,-2.17
 677623,-1.08046851,-1.70651747\H,0,-2.34055485,-1.84918326,-0.03606447

 Normal termination of Gaussian 16 at Wed Apr  9 18:19:22 2025.
