 Gaussian 16, Revision C.01,

 ----------------------------------------------------------------------
 #t hf aug-cc-pvdz symm=none int=(grid=ultrafine) guess=(read,tcheck) s
 table=(opt,rrhf)
 ----------------------------------------------------------------------
 -----
 title
 -----
 Symbolic Z-matrix:
 Charge =  0 Multiplicity = 1

 SCF Done:  E(RHF) =  -267.469957416     A.U. after   19 cycles
 Normal termination of Gaussian 16 at Wed Apr  9 03:20:56 2025.
 Gaussian 16:  ES64L-G16RevC.01  3-Jul-2019

 ----------------------------------------------------------------------
 #t hf aug-cc-pvdz iop(5/13=1,5/36=2,99/5=2) pseudo=read geom=check gue
 ss=(read,tcheck) scf=(maxcycle=1)
 ----------------------------------------------------------------------
 -----
 title
 -----
 Structure from the checkpoint file:  "Grambow2020_wb97xd3_006078_reverse_mol1.chk"
 Charge =  0 Multiplicity = 1

                         Standard orientation:
 ---------------------------------------------------------------------
 Center     Atomic      Atomic             Coordinates (Angstroms)
 Number     Number       Type             X           Y           Z
 ---------------------------------------------------------------------
      1          8           0       -0.214969   -1.215409   -0.171006
      2          6           0       -1.308132   -0.634785    0.238306
      3          6           0       -1.656202    0.598914   -0.239401
      4          6           0        0.411596    1.211667    0.184365
      5          6           0        0.929405   -0.104998   -0.037970
      6          6           0        2.173601   -0.132066   -0.017451
      7          1           0       -1.788997   -1.059592    1.122186
      8          1           0       -2.486161    1.129703    0.211368
      9          1           0       -1.409048    0.869549   -1.256903
     10          1           0        0.498569    1.952336   -0.599844
     11          1           0        0.398332    1.597184    1.197286
     12          1           0        3.205456   -0.398300   -0.073140
 ---------------------------------------------------------------------

 SCF Done:  E(RHF) =  -267.744221240     A.U. after    2 cycles

 The electronic state is 1-A.
 Alpha  occ. eigenvalues --  -20.56134 -11.31627 -11.31565 -11.29773 -11.24287
 Alpha  occ. eigenvalues --  -11.24101  -1.47838  -1.10296  -1.03226  -0.91269
 Alpha  occ. eigenvalues --   -0.81197  -0.74928  -0.69824  -0.67818  -0.64049
 Alpha  occ. eigenvalues --   -0.63332  -0.57999  -0.55635  -0.48709  -0.40180
 Alpha  occ. eigenvalues --   -0.36642  -0.29750
 Alpha virt. eigenvalues --    0.03375   0.03795   0.03993   0.04881   0.05426
 Alpha virt. eigenvalues --    0.05679   0.06757   0.10735   0.11136   0.11340
 Alpha virt. eigenvalues --    0.11483   0.13160   0.13613   0.15195   0.15299

 Mulliken charges:
               1
     1  O   -1.552145
     2  C    1.087519
     3  C   -0.122944
     4  C   -0.319170
     5  C    1.207945
     6  C   -0.034610
     7  H    0.013951
     8  H   -0.081562
     9  H    0.000600
    10  H    0.072309
    11  H    0.017955
    12  H   -0.289846
 Sum of Mulliken charges =  -0.00000

 Dipole moment (field-independent basis, Debye):
    X=             -0.6431    Y=              2.1748    Z=              0.7294  Tot=              2.3823

 Test job not archived.
 1\1\GINC-SE456\SP\RHF\Aug-CC-pVDZ\C5H6O1\OHZDE\09-Apr-2025\0\\#t hf au
 g-cc-pvdz iop(5/13=1,5/36=2,99/5=2) pseudo=read geom=check guess=(read
 ,tcheck) scf=(maxcycle=1)\\title\\0,1\O,0,-0.46913531,-1.27232293,0.58
 451357\C,0,-1.12674843,-0.31178186,1.17151551\C,0,-1.55379227,0.772244
 08,0.45465214\C,0,0.4783618,0.86945358,-0.37705381\C,0,0.67590718,-0.5
 4450885,-0.26370085\C,0,1.73859891,-0.91620677,-0.79446024\H,0,-1.1132
 8503,-0.30284501,2.26361171\H,0,-1.97141648,1.62482577,0.97662506\H,0,
 -1.84977125,0.64959082,-0.57830009\H,0,0.21312887,1.28987725,-1.338320

 Normal termination of Gaussian 16 at Wed Apr  9 03:20:59 2025.
