 Gaussian 16, Revision C.01,

 ----------------------------------------------------------------------
 #t hf aug-cc-pvdz symm=none int=(grid=ultrafine) guess=(read,tcheck) s
 table=(opt,rrhf)
 ----------------------------------------------------------------------
 -----
 title
 -----
 Symbolic Z-matrix:
 Charge =  0 Multiplicity = 1

 SCF Done:  E(RHF) =  -339.740453106     A.U. after   18 cycles
 Normal termination of Gaussian 16 at Wed Apr  9 17:17:35 2025.
 Gaussian 16:  ES64L-G16RevC.01  3-Jul-2019

 ----------------------------------------------------------------------
 #t hf aug-cc-pvdz iop(5/13=1,5/36=2,99/5=2) pseudo=read geom=check gue
 ss=(read,tcheck) scf=(maxcycle=1)
 ----------------------------------------------------------------------
 -----
 title
 -----
 Structure from the checkpoint file:  "Grambow2020_wb97xd3_006551_forward_mol1.chk"
 Charge =  0 Multiplicity = 1

                         Standard orientation:
 ---------------------------------------------------------------------
 Center     Atomic      Atomic             Coordinates (Angstroms)
 Number     Number       Type             X           Y           Z
 ---------------------------------------------------------------------
      1          6           0        2.410161   -1.087376   -0.180002
      2          7           0        1.245861   -0.511650    0.472288
      3          6           0       -0.543165    0.106766   -0.433493
      4          6           0       -1.830766    0.226984    0.282883
      5          8           0       -2.838723   -0.645739   -0.153904
      6          6           0        0.670979    0.771195   -0.019613
      7          7           0        1.059980    1.921141   -0.082469
      8          1           0        3.322428   -0.550334    0.090145
      9          1           0        2.520255   -2.140036    0.082421
     10          1           0        2.281933   -1.003883   -1.260064
     11          1           0        1.237304   -0.604645    1.480859
     12          1           0       -0.558983   -0.405011   -1.395353
     13          1           0       -2.168035    1.252261    0.082429
     14          1           0       -1.665816    0.177310    1.366738
     15          1           0       -2.643452   -1.531599    0.156669
 ---------------------------------------------------------------------

 SCF Done:  E(RHF) =  -340.084133384     A.U. after    2 cycles

 The electronic state is 1-A.
 Alpha  occ. eigenvalues --  -20.59536 -15.52976 -15.41402 -11.37381 -11.34447
 Alpha  occ. eigenvalues --  -11.27214 -11.26131  -1.50293  -1.24423  -1.13075
 Alpha  occ. eigenvalues --   -1.07800  -0.95830  -0.90542  -0.79044  -0.75886
 Alpha  occ. eigenvalues --   -0.70377  -0.67049  -0.66884  -0.63507  -0.60365
 Alpha  occ. eigenvalues --   -0.56394  -0.55800  -0.52700  -0.50783  -0.43075
 Alpha  occ. eigenvalues --   -0.41153  -0.33866
 Alpha virt. eigenvalues --    0.01562   0.02339   0.03439   0.03711   0.04572
 Alpha virt. eigenvalues --    0.05010   0.05619   0.06353   0.09003   0.10493
 Alpha virt. eigenvalues --    0.11270   0.12120   0.12442   0.13994   0.14282

 Mulliken charges:
               1
     1  C   -0.392170
     2  N    0.274809
     3  C    0.151784
     4  C    0.942957
     5  O   -1.123905
     6  C   -2.105248
     7  N    0.895235
     8  H    0.180212
     9  H    0.064130
    10  H    0.176610
    11  H    0.213812
    12  H   -0.090897
    13  H    0.317119
    14  H    0.220440
    15  H    0.275112
 Sum of Mulliken charges =  -0.00000

 Dipole moment (field-independent basis, Debye):
    X=             -2.8681    Y=             -6.5972    Z=              0.8378  Tot=              7.2422

 Test job not archived.
 1\1\GINC-SE051\SP\RHF\Aug-CC-pVDZ\C4H8N2O1\OHZDE\09-Apr-2025\0\\#t hf
 aug-cc-pvdz iop(5/13=1,5/36=2,99/5=2) pseudo=read geom=check guess=(re
 ad,tcheck) scf=(maxcycle=1)\\title\\0,1\C,0,-2.25577032,0.54826284,0.6
 3946035\N,0,-1.00869155,-0.19815269,0.65350917\C,0,0.65031222,0.073942
 15,-0.60234171\C,0,2.02314107,-0.35315158,-0.25811224\O,0,2.9542807,0.
 68767585,-0.12371828\C,0,-0.4904944,-0.81232155,-0.60045006\N,0,-0.871
 79507,-1.68878269,-1.35149889\H,0,-3.11796138,-0.12057418,0.5855382\H,
 0,-2.3414189,1.17620565,1.52683269\H,0,-2.2717287,1.1843689,-0.2465772

 Normal termination of Gaussian 16 at Wed Apr  9 17:17:40 2025.
