 Gaussian 16, Revision C.01,

 ----------------------------------------------------------------------
 #t hf aug-cc-pvdz symm=none int=(grid=ultrafine) guess=(read,tcheck) s
 table=(opt,rrhf)
 ----------------------------------------------------------------------
 -----
 title
 -----
 Symbolic Z-matrix:
 Charge =  0 Multiplicity = 1

 SCF Done:  E(RHF) =  -325.032542855     A.U. after   14 cycles
 Normal termination of Gaussian 16 at Wed Apr  9 18:51:00 2025.
 Gaussian 16:  ES64L-G16RevC.01  3-Jul-2019

 ----------------------------------------------------------------------
 #t hf aug-cc-pvdz iop(5/13=1,5/36=2,99/5=2) pseudo=read geom=check gue
 ss=(read,tcheck) scf=(maxcycle=1)
 ----------------------------------------------------------------------
 -----
 title
 -----
 Structure from the checkpoint file:  "Grambow2020_wb97xd3_008110_reverse_mol2.chk"
 Charge =  0 Multiplicity = 1

                         Standard orientation:
 ---------------------------------------------------------------------
 Center     Atomic      Atomic             Coordinates (Angstroms)
 Number     Number       Type             X           Y           Z
 ---------------------------------------------------------------------
      1          6           0        1.775567   -1.210702   -0.194269
      2          7           0        1.041013    0.027146   -0.494271
      3          6           0       -0.412968   -0.018195    0.280420
      4          8           0       -0.259768   -0.088133    1.490566
      5          6           0       -1.411247    0.035093   -0.627386
      6          6           0       -2.850038    0.011966   -0.207072
      7          6           0        1.767234    1.230408   -0.061618
      8          1           0        2.784376   -1.167612   -0.606070
      9          1           0        1.229333   -2.052268   -0.615726
     10          1           0        1.808156   -1.312734    0.889068
     11          1           0        0.836863    0.080776   -1.485978
     12          1           0       -1.178960    0.094269   -1.684451
     13          1           0       -2.917932   -0.026888    0.880784
     14          1           0       -3.382263   -0.859040   -0.602220
     15          1           0       -3.391375    0.902321   -0.541627
     16          1           0        1.205345    2.108135   -0.375076
     17          1           0        1.816059    1.207148    1.025613
     18          1           0        2.770157    1.249510   -0.489402
 ---------------------------------------------------------------------

 SCF Done:  E(RHF) =  -325.379029064     A.U. after    2 cycles

 The electronic state is 1-A.
 Alpha  occ. eigenvalues --  -20.46988 -15.60272 -11.32290 -11.29367 -11.29350
 Alpha  occ. eigenvalues --  -11.20269 -11.18856  -1.42154  -1.29684  -1.03058
 Alpha  occ. eigenvalues --   -1.01215  -0.94662  -0.87888  -0.79114  -0.72572
 Alpha  occ. eigenvalues --   -0.68685  -0.67495  -0.60329  -0.60201  -0.59434
 Alpha  occ. eigenvalues --   -0.57391  -0.56378  -0.55021  -0.51574  -0.50083
 Alpha  occ. eigenvalues --   -0.49183  -0.40472  -0.27751
 Alpha virt. eigenvalues --    0.02099   0.03624   0.03786   0.04712   0.05429
 Alpha virt. eigenvalues --    0.05616   0.05925   0.07058   0.07184   0.08595
 Alpha virt. eigenvalues --    0.09298   0.11590   0.12883   0.12920   0.14263

 Mulliken charges:
               1
     1  C   -0.398515
     2  N    0.017661
     3  C    1.001568
     4  O   -1.510644
     5  C    0.362697
     6  C   -0.785606
     7  C   -0.395415
     8  H    0.112096
     9  H    0.157697
    10  H    0.280476
    11  H    0.476479
    12  H   -0.396207
    13  H    0.099798
    14  H    0.215526
    15  H    0.213054
    16  H    0.160971
    17  H    0.284488
    18  H    0.103876
 Sum of Mulliken charges =  -0.00000

 Dipole moment (field-independent basis, Debye):
    X=              4.8054    Y=              0.2296    Z=             -3.8738  Tot=              6.1766

 Test job not archived.
 1\1\GINC-SE115\SP\RHF\Aug-CC-pVDZ\C5H11N1O1\OHZDE\09-Apr-2025\0\\#t hf
  aug-cc-pvdz iop(5/13=1,5/36=2,99/5=2) pseudo=read geom=check guess=(r
 ead,tcheck) scf=(maxcycle=1)\\title\\0,1\C,0,1.97563816,0.71034619,-0.
 13711397\N,0,0.5199343,0.84083033,-0.29754773\C,0,-0.21337575,-0.41725
 828,0.47428947\O,0,0.04231883,-0.40399769,1.66896865\C,0,-0.91664588,-
 1.1474208,-0.41777886\C,0,-1.69151335,-2.35940181,0.00412322\C,0,0.003
 79106,2.0999124,0.25988688\H,0,2.48646465,1.58250464,-0.54641609\H,0,2
 .30363275,-0.19449561,-0.6449636\H,0,2.17604245,0.61423669,0.92857451\

 Normal termination of Gaussian 16 at Wed Apr  9 18:51:06 2025.
