 Gaussian 16, Revision C.01,

 ----------------------------------------------------------------------
 #t hf aug-cc-pvdz symm=none int=(grid=ultrafine) guess=(read,tcheck) s
 table=(opt,rrhf)
 ----------------------------------------------------------------------
 -----
 title
 -----
 Symbolic Z-matrix:
 Charge =  0 Multiplicity = 1

 SCF Done:  E(RHF) =  -375.754411361     A.U. after   14 cycles
 Normal termination of Gaussian 16 at Wed Apr  9 03:47:01 2025.
 Gaussian 16:  ES64L-G16RevC.01  3-Jul-2019

 ----------------------------------------------------------------------
 #t hf aug-cc-pvdz iop(5/13=1,5/36=2,99/5=2) pseudo=read geom=check gue
 ss=(read,tcheck) scf=(maxcycle=1)
 ----------------------------------------------------------------------
 -----
 title
 -----
 Structure from the checkpoint file:  "Grambow2020_wb97xd3_007916_reverse_mol2.chk"
 Charge =  0 Multiplicity = 1

                         Standard orientation:
 ---------------------------------------------------------------------
 Center     Atomic      Atomic             Coordinates (Angstroms)
 Number     Number       Type             X           Y           Z
 ---------------------------------------------------------------------
      1          6           0       -0.938595    1.332736    0.396556
      2          8           0       -2.157298    0.723886   -0.050514
      3          6           0        2.269036   -0.177211    0.025671
      4          7           0        2.850932    0.780909   -0.461640
      5          7           0        1.716148   -1.053375    0.653519
      6          6           0       -2.112415   -0.570399   -0.309727
      7          8           0       -1.150842   -1.282472   -0.204372
      8          1           0       -1.191133    2.364530    0.621516
      9          1           0       -0.182493    1.291855   -0.387393
     10          1           0       -0.565841    0.829288    1.287896
     11          1           0        3.456639    0.617458   -1.252355
     12          1           0        0.768516   -1.319548    0.393957
     13          1           0       -3.098286   -0.918389   -0.642689
 ---------------------------------------------------------------------

 SCF Done:  E(RHF) =  -376.134624824     A.U. after    2 cycles

 The electronic state is 1-A.
 Alpha  occ. eigenvalues --  -20.61508 -20.56228 -15.50942 -15.50390 -11.41203
 Alpha  occ. eigenvalues --  -11.35984 -11.30942  -1.57404  -1.48105  -1.27942
 Alpha  occ. eigenvalues --   -1.20707  -1.00936  -0.84346  -0.81987  -0.77460
 Alpha  occ. eigenvalues --   -0.76160  -0.70515  -0.69250  -0.61412  -0.61273
 Alpha  occ. eigenvalues --   -0.60639  -0.57367  -0.54779  -0.48109  -0.47725
 Alpha  occ. eigenvalues --   -0.45943  -0.45541
 Alpha virt. eigenvalues --    0.03289   0.03747   0.04333   0.05511   0.07100
 Alpha virt. eigenvalues --    0.08056   0.09653   0.10086   0.10687   0.12220
 Alpha virt. eigenvalues --    0.12526   0.12987   0.14617   0.15496   0.15944

 Mulliken charges:
               1
     1  C    0.203228
     2  O   -1.000218
     3  C   -1.428443
     4  N    0.537729
     5  N    0.707709
     6  C    1.383131
     7  O   -1.048104
     8  H   -0.027622
     9  H    0.165692
    10  H    0.165191
    11  H    0.145320
    12  H    0.139111
    13  H    0.057276
 Sum of Mulliken charges =  -0.00000

 Dipole moment (field-independent basis, Debye):
    X=             -2.0820    Y=              1.0375    Z=             -1.6700  Tot=              2.8636

 Test job not archived.
 1\1\GINC-SE038\SP\RHF\Aug-CC-pVDZ\C3H6N2O2\OHZDE\09-Apr-2025\0\\#t hf
 aug-cc-pvdz iop(5/13=1,5/36=2,99/5=2) pseudo=read geom=check guess=(re
 ad,tcheck) scf=(maxcycle=1)\\title\\0,1\C,0,-1.1470851,-0.65237749,-0.
 48891002\O,0,-0.63486364,-1.99140712,-0.50978667\C,0,0.64936078,2.1230
 3767,0.84384834\N,0,0.50627743,2.88558684,-0.10067081\N,0,0.63970412,1
 .41208283,1.82465991\C,0,0.39183908,-2.24519426,0.28132204\O,0,0.93288
 779,-1.46310105,1.01505706\H,0,-2.0169193,-0.66057031,-1.13875849\H,0,
 -0.40095173,0.04675437,-0.8663168\H,0,-1.43150509,-0.36902748,0.523864

 Normal termination of Gaussian 16 at Wed Apr  9 03:47:05 2025.
