 Gaussian 16, Revision C.01,

 ----------------------------------------------------------------------
 #t hf aug-cc-pvdz symm=none int=(grid=ultrafine) guess=(read,tcheck) s
 table=(opt,rrhf)
 ----------------------------------------------------------------------
 -----
 title
 -----
 Symbolic Z-matrix:
 Charge =  0 Multiplicity = 1

 SCF Done:  E(RHF) =  -322.547896515     A.U. after   16 cycles
 Normal termination of Gaussian 16 at Wed Apr  9 03:39:30 2025.
 Gaussian 16:  ES64L-G16RevC.01  3-Jul-2019

 ----------------------------------------------------------------------
 #t hf aug-cc-pvdz iop(5/13=1,5/36=2,99/5=2) pseudo=read geom=check gue
 ss=(read,tcheck) scf=(maxcycle=1)
 ----------------------------------------------------------------------
 -----
 title
 -----
 Structure from the checkpoint file:  "Grambow2020_wb97xd3_007383_forward_mol1.chk"
 Charge =  0 Multiplicity = 1

                         Standard orientation:
 ---------------------------------------------------------------------
 Center     Atomic      Atomic             Coordinates (Angstroms)
 Number     Number       Type             X           Y           Z
 ---------------------------------------------------------------------
      1          6           0       -1.855097   -0.135630    0.424079
      2          6           0       -0.935924    0.688856   -0.462796
      3          6           0        0.249033    1.354383    0.179206
      4          8           0        1.498340    0.650117   -0.065143
      5          6           0        1.465577   -0.661849    0.074447
      6          7           0        0.377250   -1.343399    0.145309
      7          6           0       -0.854505   -0.796279   -0.442764
      8          1           0       -1.675772   -0.074556    1.494396
      9          1           0       -2.898485   -0.206397    0.143596
     10          1           0       -1.352496    1.183467   -1.331341
     11          1           0        0.136398    1.406445    1.264791
     12          1           0        0.431702    2.354409   -0.205537
     13          1           0        2.442005   -1.129319    0.116881
     14          1           0       -0.125322   -2.028065   -0.611835
 ---------------------------------------------------------------------

 SCF Done:  E(RHF) =  -322.882244266     A.U. after    2 cycles

 The electronic state is 1-A.
 Alpha  occ. eigenvalues --  -20.60652 -15.53323 -11.37500 -11.30756 -11.22925
 Alpha  occ. eigenvalues --  -11.22745 -11.22637  -1.54206  -1.27205  -1.13745
 Alpha  occ. eigenvalues --   -0.98908  -0.93950  -0.81999  -0.78105  -0.74493
 Alpha  occ. eigenvalues --   -0.70670  -0.65516  -0.62730  -0.61442  -0.58677
 Alpha  occ. eigenvalues --   -0.54594  -0.51468  -0.48187  -0.44991  -0.39818
 Alpha  occ. eigenvalues --   -0.29259
 Alpha virt. eigenvalues --    0.03425   0.03985   0.04517   0.04797   0.05897
 Alpha virt. eigenvalues --    0.06515   0.06874   0.08239   0.08589   0.11151
 Alpha virt. eigenvalues --    0.12154   0.12889   0.14143   0.14507   0.14961

 Mulliken charges:
               1
     1  C    0.143358
     2  C    0.384572
     3  C    0.355317
     4  O   -1.186093
     5  C    0.365838
     6  N    0.532616
     7  C   -0.881467
     8  H   -0.089785
     9  H   -0.117976
    10  H   -0.145380
    11  H    0.152101
    12  H   -0.006475
    13  H    0.007604
    14  H    0.485770
 Sum of Mulliken charges =  -0.00000

 Dipole moment (field-independent basis, Debye):
    X=              1.8607    Y=              1.2959    Z=              0.6976  Tot=              2.3724

 Test job not archived.
 1\1\GINC-SE173\SP\RHF\Aug-CC-pVDZ\C5H7N1O1\OHZDE\09-Apr-2025\0\\#t hf
 aug-cc-pvdz iop(5/13=1,5/36=2,99/5=2) pseudo=read geom=check guess=(re
 ad,tcheck) scf=(maxcycle=1)\\title\\0,1\C,0,-1.64680746,-0.22991885,0.
 24313293\C,0,-0.65910536,0.52926559,-0.62823796\C,0,0.44701793,1.28278
 413,0.05580693\O,0,1.72528316,0.59030654,0.00123573\C,0,1.70012933,-0.
 70277839,0.26412888\N,0,0.62112786,-1.40181957,0.29706711\C,0,-0.55623
 565,-0.94465058,-0.45606027\H,0,-1.57337505,-0.06254142,1.31460756\H,0
 ,-2.65672074,-0.35351944,-0.12718351\H,0,-0.99714674,0.92809174,-1.576

 Normal termination of Gaussian 16 at Wed Apr  9 03:39:35 2025.
