 Gaussian 16, Revision C.01,

 ----------------------------------------------------------------------
 #t hf aug-cc-pvdz symm=none int=(grid=ultrafine) guess=(read,tcheck) s
 table=(opt,rrhf)
 ----------------------------------------------------------------------
 -----
 title
 -----
 Symbolic Z-matrix:
 Charge =  0 Multiplicity = 1

 SCF Done:  E(RHF) =  -354.528863251     A.U. after   17 cycles
 Normal termination of Gaussian 16 at Wed Apr  9 18:19:01 2025.
 Gaussian 16:  ES64L-G16RevC.01  3-Jul-2019

 ----------------------------------------------------------------------
 #t hf aug-cc-pvdz iop(5/13=1,5/36=2,99/5=2) pseudo=read geom=check gue
 ss=(read,tcheck) scf=(maxcycle=1)
 ----------------------------------------------------------------------
 -----
 title
 -----
 Structure from the checkpoint file:  "Grambow2020_wb97xd3_007316_reverse_mol1.chk"
 Charge =  0 Multiplicity = 1

                         Standard orientation:
 ---------------------------------------------------------------------
 Center     Atomic      Atomic             Coordinates (Angstroms)
 Number     Number       Type             X           Y           Z
 ---------------------------------------------------------------------
      1          8           0       -2.454206   -0.312280    0.116754
      2          6           0       -1.504267    0.594681    0.073835
      3          6           0       -0.200491    0.306043   -0.280391
      4          7           0        0.193334   -0.986226   -0.339122
      5          7           0        1.423501   -0.885743    0.061651
      6          6           0        1.827584    0.433255    0.102273
      7          7           0        0.839751    1.205110   -0.179165
      8          1           0       -2.056255   -1.185379   -0.019172
      9          1           0        0.742145   -0.264328    2.116900
     10          1           0       -1.824880    1.606884    0.279346
     11          1           0        1.994545   -1.706716    0.184459
     12          1           0        2.845038    0.711914    0.326586
 ---------------------------------------------------------------------

 SCF Done:  E(RHF) =  -354.886720102     A.U. after    2 cycles

 The electronic state is 1-A.
 Alpha  occ. eigenvalues --  -20.64912 -15.65758 -15.59335 -15.52527 -11.40456
 Alpha  occ. eigenvalues --  -11.35043 -11.32272  -1.57600  -1.46845  -1.26023
 Alpha  occ. eigenvalues --   -1.17463  -1.03168  -0.93742  -0.89545  -0.85135
 Alpha  occ. eigenvalues --   -0.77745  -0.73362  -0.71058  -0.68035  -0.63561
 Alpha  occ. eigenvalues --   -0.61236  -0.59195  -0.54135  -0.49879  -0.42257
 Alpha  occ. eigenvalues --   -0.24538
 Alpha virt. eigenvalues --   -0.02681   0.02970   0.04073   0.04657   0.04910
 Alpha virt. eigenvalues --    0.07419   0.08816   0.09478   0.10182   0.11090
 Alpha virt. eigenvalues --    0.11889   0.12217   0.13859   0.14937   0.15282

 Mulliken charges:
               1
     1  O   -1.341643
     2  C    1.700252
     3  C   -1.811564
     4  N    0.538287
     5  N    0.255912
     6  C   -0.604811
     7  N    1.060871
     8  H    0.434735
     9  H   -0.331184
    10  H    0.042767
    11  H    0.133631
    12  H   -0.077253
 Sum of Mulliken charges =  -0.00000

 Dipole moment (field-independent basis, Debye):
    X=              0.3498    Y=             -1.1958    Z=             -3.5186  Tot=              3.7327

 Test job not archived.
 1\1\GINC-SE362\SP\RHF\Aug-CC-pVDZ\C3H5N3O1\OHZDE\09-Apr-2025\0\\#t hf
 aug-cc-pvdz iop(5/13=1,5/36=2,99/5=2) pseudo=read geom=check guess=(re
 ad,tcheck) scf=(maxcycle=1)\\title\\0,1\O,0,-2.42635121,0.93243727,-0.
 41149197\C,0,-1.70147434,0.09933922,0.30076208\C,0,-0.32609415,0.18739
 045,0.39665589\N,0,0.34234055,0.98770151,-0.46427663\N,0,1.43863713,0.
 31230246,-0.62550823\C,0,1.53527173,-0.70786127,0.2989476\N,0,0.463723
 96,-0.76447267,1.00560249\H,0,-1.83202093,1.50432726,-0.92027044\H,0,0
 .31083779,-1.34340575,-1.65562889\H,0,-2.26292166,-0.63467455,0.862529

 Normal termination of Gaussian 16 at Wed Apr  9 18:19:05 2025.
