 Gaussian 16, Revision C.01,

 ----------------------------------------------------------------------
 #t hf aug-cc-pvdz symm=none int=(grid=ultrafine) guess=(read,tcheck) s
 table=(opt,rrhf)
 ----------------------------------------------------------------------
 -----
 title
 -----
 Symbolic Z-matrix:
 Charge =  0 Multiplicity = 1

 SCF Done:  E(RHF) =  -360.872307951     A.U. after   14 cycles
 Normal termination of Gaussian 16 at Wed Apr  9 19:08:02 2025.
 Gaussian 16:  ES64L-G16RevC.01  3-Jul-2019

 ----------------------------------------------------------------------
 #t hf aug-cc-pvdz iop(5/13=1,5/36=2,99/5=2) pseudo=read geom=check gue
 ss=(read,tcheck) scf=(maxcycle=1)
 ----------------------------------------------------------------------
 -----
 title
 -----
 Structure from the checkpoint file:  "Grambow2020_wb97xd3_008623_reverse_mol1.chk"
 Charge =  0 Multiplicity = 1

                         Standard orientation:
 ---------------------------------------------------------------------
 Center     Atomic      Atomic             Coordinates (Angstroms)
 Number     Number       Type             X           Y           Z
 ---------------------------------------------------------------------
      1          6           0       -3.041662    0.311088    0.102022
      2          6           0       -1.630870   -0.038148    0.558096
      3          6           0       -0.774318   -0.491887   -0.605559
      4          8           0        0.527698   -0.926433   -0.165872
      5          6           0        1.451254   -0.009069   -0.021774
      6          8           0        1.300489    1.239626   -0.292165
      7          7           0        2.668987   -0.185766    0.404036
      8          1           0       -3.534992   -0.546803   -0.361645
      9          1           0       -3.655771    0.627954    0.945286
     10          1           0       -3.033793    1.124855   -0.626514
     11          1           0       -1.159737    0.829719    1.025595
     12          1           0       -1.660643   -0.834796    1.306120
     13          1           0       -1.203077   -1.368523   -1.091993
     14          1           0       -0.651797    0.302687   -1.343082
     15          1           0        3.054414   -1.076197    0.669667
     16          1           0        2.510567    1.104021    0.115904
 ---------------------------------------------------------------------

 SCF Done:  E(RHF) =  -361.243229540     A.U. after    2 cycles

 The electronic state is 1-A.
 Alpha  occ. eigenvalues --  -20.60589 -20.54089 -15.48738 -11.41202 -11.30593
 Alpha  occ. eigenvalues --  -11.24051 -11.23622  -1.56611  -1.47508  -1.19733
 Alpha  occ. eigenvalues --   -1.07945  -0.96055  -0.85166  -0.81516  -0.79360
 Alpha  occ. eigenvalues --   -0.70178  -0.67505  -0.65791  -0.60644  -0.59783
 Alpha  occ. eigenvalues --   -0.58712  -0.54978  -0.52995  -0.52126  -0.49454
 Alpha  occ. eigenvalues --   -0.47316  -0.46477  -0.42332
 Alpha virt. eigenvalues --    0.03596   0.03734   0.03976   0.04490   0.06225
 Alpha virt. eigenvalues --    0.06844   0.06979   0.07546   0.08768   0.11223
 Alpha virt. eigenvalues --    0.12047   0.13490   0.14349   0.14571   0.15504

 Mulliken charges:
               1
     1  C   -0.407564
     2  C   -0.429741
     3  C    0.620798
     4  O   -1.352743
     5  C    0.421147
     6  O   -1.201596
     7  N    0.836549
     8  H    0.169057
     9  H    0.117294
    10  H    0.172595
    11  H    0.133223
    12  H    0.160722
    13  H   -0.012553
    14  H    0.206395
    15  H    0.006193
    16  H    0.560224
 Sum of Mulliken charges =  -0.00000

 Dipole moment (field-independent basis, Debye):
    X=             -2.0127    Y=             -1.3811    Z=             -0.0468  Tot=              2.4415

 Test job not archived.
 1\1\GINC-SE036\SP\RHF\Aug-CC-pVDZ\C4H9N1O2\OHZDE\09-Apr-2025\0\\#t hf
 aug-cc-pvdz iop(5/13=1,5/36=2,99/5=2) pseudo=read geom=check guess=(re
 ad,tcheck) scf=(maxcycle=1)\\title\\0,1\C,0,-2.50138638,0.08293865,-0.
 29138311\C,0,-1.04847653,0.54048717,-0.29388682\C,0,-0.21250212,-0.281
 34645,0.66496087\O,0,1.13800064,0.21524202,0.748288\C,0,1.99262704,-0.
 2123617,-0.14728213\O,0,1.73271837,-1.0795282,-1.06136606\N,0,3.238419
 66,0.14506553,-0.27240623\H,0,-2.94661426,0.17368064,0.70253665\H,0,-3
 .09967679,0.6841809,-0.97635241\H,0,-2.59001241,-0.96039233,-0.6022655

 Normal termination of Gaussian 16 at Wed Apr  9 19:08:07 2025.
