 Gaussian 16, Revision C.01,

 ----------------------------------------------------------------------
 #t hf aug-cc-pvdz symm=none int=(grid=ultrafine) guess=(read,tcheck) s
 table=(opt,rrhf)
 ----------------------------------------------------------------------
 -----
 title
 -----
 Symbolic Z-matrix:
 Charge =  0 Multiplicity = 1

 SCF Done:  E(RHF) =  -359.550565646     A.U. after   19 cycles
 Normal termination of Gaussian 16 at Wed Apr  9 18:17:22 2025.
 Gaussian 16:  ES64L-G16RevC.01  3-Jul-2019

 ----------------------------------------------------------------------
 #t hf aug-cc-pvdz iop(5/13=1,5/36=2,99/5=2) pseudo=read geom=check gue
 ss=(read,tcheck) scf=(maxcycle=1)
 ----------------------------------------------------------------------
 -----
 title
 -----
 Structure from the checkpoint file:  "Grambow2020_wb97xd3_007276_forward_mol1.chk"
 Charge =  0 Multiplicity = 1

                         Standard orientation:
 ---------------------------------------------------------------------
 Center     Atomic      Atomic             Coordinates (Angstroms)
 Number     Number       Type             X           Y           Z
 ---------------------------------------------------------------------
      1          8           0       -2.086329    0.303858   -0.007225
      2          6           0       -0.849993   -0.058129    0.452871
      3          6           0       -0.317615   -1.441510   -0.046310
      4          7           0        0.990322   -1.155391   -0.566817
      5          6           0        1.542666   -0.312093    0.391226
      6          6           0        0.402301    0.776465   -0.113433
      7          8           0        0.633374    1.978032   -0.131970
      8          1           0       -2.092025    0.292863   -0.969952
      9          1           0       -0.885502    0.068504    1.537932
     10          1           0       -0.233735   -2.120030    0.809346
     11          1           0       -0.969050   -1.885266   -0.799571
     12          1           0        0.272523    0.213136   -1.208636
     13          1           0        2.542150    0.046452    0.166031
     14          1           0        1.392874   -0.571437    1.440005
 ---------------------------------------------------------------------

 SCF Done:  E(RHF) =  -359.912892932     A.U. after    2 cycles

 The electronic state is 1-A.
 Alpha  occ. eigenvalues --  -20.59027 -20.50263 -15.61574 -11.34950 -11.34655
 Alpha  occ. eigenvalues --  -11.30620 -11.29145  -1.50868  -1.43835  -1.31387
 Alpha  occ. eigenvalues --   -1.03458  -0.99096  -0.86266  -0.83561  -0.74203
 Alpha  occ. eigenvalues --   -0.70325  -0.67795  -0.65832  -0.64581  -0.60130
 Alpha  occ. eigenvalues --   -0.59016  -0.57683  -0.54495  -0.52179  -0.47866
 Alpha  occ. eigenvalues --   -0.38464  -0.36265
 Alpha virt. eigenvalues --   -0.01455   0.02956   0.03349   0.04534   0.04832
 Alpha virt. eigenvalues --    0.05912   0.06273   0.06748   0.09651   0.10177
 Alpha virt. eigenvalues --    0.13259   0.13466   0.13841   0.14122   0.14649

 Mulliken charges:
               1
     1  O   -1.352058
     2  C    1.230421
     3  C   -0.661780
     4  N    0.515741
     5  C   -0.274214
     6  C    0.781902
     7  O   -1.330454
     8  H    0.252823
     9  H    0.082670
    10  H    0.205580
    11  H    0.014660
    12  H    0.441398
    13  H   -0.008293
    14  H    0.101604
 Sum of Mulliken charges =  -0.00000

 Dipole moment (field-independent basis, Debye):
    X=             -0.9994    Y=             -3.8151    Z=              0.9542  Tot=              4.0576

 Test job not archived.
 1\1\GINC-SE116\SP\RHF\Aug-CC-pVDZ\C4H7N1O2\OHZDE\09-Apr-2025\0\\#t hf
 aug-cc-pvdz iop(5/13=1,5/36=2,99/5=2) pseudo=read geom=check guess=(re
 ad,tcheck) scf=(maxcycle=1)\\title\\0,1\O,0,2.11881818,-0.14921317,0.3
 7402929\C,0,0.75336726,-0.09137425,0.43274889\C,0,0.10165907,1.1981711
 ,-0.16616728\N,0,-0.89149732,0.70631932,-1.08006632\C,0,-1.50387428,-0
 .32109734,-0.37049635\C,0,-0.05238044,-1.10195162,-0.52380263\O,0,0.00
 62318,-2.31767233,-0.65065153\H,0,2.41077669,-0.04278484,-0.53724976\H
 ,0,0.48862072,-0.31418143,1.46953241\H,0,-0.3840913,1.7583675,0.639933

 Normal termination of Gaussian 16 at Wed Apr  9 18:17:26 2025.
