 Gaussian 16, Revision C.01,

 ----------------------------------------------------------------------
 #t hf aug-cc-pvdz symm=none int=(grid=ultrafine) guess=(read,tcheck) s
 table=(opt,rrhf)
 ----------------------------------------------------------------------
 -----
 title
 -----
 Symbolic Z-matrix:
 Charge =  0 Multiplicity = 1

 SCF Done:  E(RHF) =  -286.637571694     A.U. after   18 cycles
 Normal termination of Gaussian 16 at Wed Apr  9 18:26:00 2025.
 Gaussian 16:  ES64L-G16RevC.01  3-Jul-2019

 ----------------------------------------------------------------------
 #t hf aug-cc-pvdz iop(5/13=1,5/36=2,99/5=2) pseudo=read geom=check gue
 ss=(read,tcheck) scf=(maxcycle=1)
 ----------------------------------------------------------------------
 -----
 title
 -----
 Structure from the checkpoint file:  "Grambow2020_wb97xd3_007554_forward_mol1.chk"
 Charge =  0 Multiplicity = 1

                         Standard orientation:
 ---------------------------------------------------------------------
 Center     Atomic      Atomic             Coordinates (Angstroms)
 Number     Number       Type             X           Y           Z
 ---------------------------------------------------------------------
      1          6           0        0.213196    1.647386   -0.060657
      2          6           0        0.001923    0.144004   -0.000932
      3          6           0       -0.808798   -0.353371    1.179194
      4          6           0       -1.909685   -0.389385    0.164707
      5          6           0       -1.444758   -0.229833   -0.998068
      6          6           0        1.113800   -0.834541   -0.533405
      7          7           0        2.076686   -0.367905    0.336847
      8          1           0       -0.754510    2.148483   -0.021362
      9          1           0        0.705789    1.927103   -0.993011
     10          1           0        0.820071    1.994315    0.772071
     11          1           0       -0.936550    0.340138    2.006790
     12          1           0       -0.531024   -1.340494    1.538406
     13          1           0       -1.495168   -0.190763   -2.069614
     14          1           0        0.771547   -1.858627   -0.347778
     15          1           0        1.251469   -0.687288   -1.613837
     16          1           0        2.637504    0.336909   -0.134629
 ---------------------------------------------------------------------

 SCF Done:  E(RHF) =  -286.936752062     A.U. after    2 cycles

 The electronic state is 1-A.
 Alpha  occ. eigenvalues --  -15.41830 -11.32822 -11.31053 -11.30045 -11.29237
 Alpha  occ. eigenvalues --  -11.26977 -11.25087  -1.22040  -1.13302  -1.01093
 Alpha  occ. eigenvalues --   -0.97084  -0.88707  -0.77681  -0.77103  -0.67114
 Alpha  occ. eigenvalues --   -0.65618  -0.63816  -0.60939  -0.59698  -0.56038
 Alpha  occ. eigenvalues --   -0.53972  -0.52145  -0.47637  -0.43630  -0.40883
 Alpha  occ. eigenvalues --   -0.28839
 Alpha virt. eigenvalues --    0.00796   0.02667   0.03751   0.04298   0.04625
 Alpha virt. eigenvalues --    0.05493   0.05729   0.06622   0.07769   0.09108
 Alpha virt. eigenvalues --    0.09789   0.10640   0.12205   0.12575   0.12801

 Mulliken charges:
               1
     1  C   -0.369737
     2  C   -0.875087
     3  C    0.158996
     4  C   -0.177808
     5  C    0.709578
     6  C   -0.665993
     7  N    0.251998
     8  H    0.222404
     9  H    0.223686
    10  H    0.280485
    11  H    0.043564
    12  H    0.136711
    13  H   -0.047675
    14  H    0.027046
    15  H   -0.042522
    16  H    0.124355
 Sum of Mulliken charges =  -0.00000

 Dipole moment (field-independent basis, Debye):
    X=             -4.3219    Y=              1.5419    Z=             -2.3181  Tot=              5.1410

 Test job not archived.
 1\1\GINC-SE162\SP\RHF\Aug-CC-pVDZ\C6H9N1\OHZDE\09-Apr-2025\0\\#t hf au
 g-cc-pvdz iop(5/13=1,5/36=2,99/5=2) pseudo=read geom=check guess=(read
 ,tcheck) scf=(maxcycle=1)\\title\\0,1\C,0,-0.15843731,1.49935873,0.262
 04177\C,0,0.08815163,0.00429695,0.15092854\C,0,0.51601964,-0.48522777,
 -1.21824646\C,0,1.87652901,-0.4585455,-0.59315918\C,0,1.78636139,-0.29
 360193,0.65516885\C,0,-0.76253436,-1.00529776,1.00790016\N,0,-1.965825
 72,-0.59356384,0.47423072\H,0,0.72768124,2.0363392,-0.07787328\H,0,-0.
 35106889,1.77865794,1.29889132\H,0,-1.00671899,1.80591737,-0.34502834\

 Normal termination of Gaussian 16 at Wed Apr  9 18:26:06 2025.
