 Gaussian 16, Revision C.01,

 ----------------------------------------------------------------------
 #t hf aug-cc-pvdz symm=none int=(grid=ultrafine) guess=(read,tcheck) s
 table=(opt,rrhf)
 ----------------------------------------------------------------------
 -----
 title
 -----
 Symbolic Z-matrix:
 Charge =  0 Multiplicity = 1

 SCF Done:  E(RHF) =  -306.577687021     A.U. after   15 cycles
 Normal termination of Gaussian 16 at Wed Apr  9 19:19:04 2025.
 Gaussian 16:  ES64L-G16RevC.01  3-Jul-2019

 ----------------------------------------------------------------------
 #t hf aug-cc-pvdz iop(5/13=1,5/36=2,99/5=2) pseudo=read geom=check gue
 ss=(read,tcheck) scf=(maxcycle=1)
 ----------------------------------------------------------------------
 -----
 title
 -----
 Structure from the checkpoint file:  "Grambow2020_wb97xd3_009278_reverse_mol2.chk"
 Charge =  0 Multiplicity = 1

                         Standard orientation:
 ---------------------------------------------------------------------
 Center     Atomic      Atomic             Coordinates (Angstroms)
 Number     Number       Type             X           Y           Z
 ---------------------------------------------------------------------
      1          6           0       -1.526498    1.378218    0.111404
      2          6           0       -1.326111   -0.060445   -0.356408
      3          6           0       -2.336524   -1.032791    0.258893
      4          6           0        0.038101   -0.660778   -0.270836
      5          8           0        0.908510    0.322229   -0.016398
      6          6           0        2.183731   -0.001278    0.045333
      7          6           0        3.355647   -0.201672    0.117878
      8          1           0       -1.329705    1.469179    1.181791
      9          1           0       -2.557709    1.688342   -0.064408
     10          1           0       -0.869447    2.074463   -0.408953
     11          1           0       -1.467853   -0.112240   -1.451936
     12          1           0       -2.169181   -2.048084   -0.099519
     13          1           0       -2.246268   -1.039860    1.347274
     14          1           0       -3.355418   -0.732936    0.009610
     15          1           0        4.397420   -0.404211    0.179738
 ---------------------------------------------------------------------

 SCF Done:  E(RHF) =  -306.892334977     A.U. after    2 cycles

 The electronic state is 1-A.
 Alpha  occ. eigenvalues --  -20.65620 -11.32670 -11.31079 -11.25121 -11.24456
 Alpha  occ. eigenvalues --  -11.23562 -11.23336  -1.59099  -1.11122  -1.04275
 Alpha  occ. eigenvalues --   -0.94724  -0.94243  -0.82127  -0.73729  -0.71246
 Alpha  occ. eigenvalues --   -0.67357  -0.65376  -0.62500  -0.57583  -0.55303
 Alpha  occ. eigenvalues --   -0.53845  -0.50519  -0.49639  -0.41690  -0.40326
 Alpha  occ. eigenvalues --   -0.38005
 Alpha virt. eigenvalues --    0.03474   0.03667   0.04059   0.04330   0.05640
 Alpha virt. eigenvalues --    0.06870   0.07236   0.07538   0.08075   0.10242
 Alpha virt. eigenvalues --    0.11320   0.12152   0.12599   0.13899   0.14202

 Mulliken charges:
               1
     1  C   -0.082184
     2  C   -1.045261
     3  C   -0.062190
     4  C    0.200244
     5  O   -1.088030
     6  C    0.579193
     7  C    0.480986
     8  H    0.221637
     9  H    0.140733
    10  H    0.169433
    11  H    0.390267
    12  H    0.149219
    13  H    0.216354
    14  H    0.142499
    15  H   -0.412899
 Sum of Mulliken charges =  -0.00000

 Dipole moment (field-independent basis, Debye):
    X=             -1.0286    Y=              1.0533    Z=             -0.0097  Tot=              1.4722

 Test job not archived.
 1\1\GINC-SE222\SP\RHF\Aug-CC-pVDZ\C6H8O1\OHZDE\09-Apr-2025\0\\#t hf au
 g-cc-pvdz iop(5/13=1,5/36=2,99/5=2) pseudo=read geom=check guess=(read
 ,tcheck) scf=(maxcycle=1)\\title\\0,1\C,0,-1.00995946,0.4710385,-1.287
 48026\C,0,-0.48026831,-0.56742213,-0.30270559\C,0,-1.57482054,-1.14602
 236,0.59849606\C,0,0.70619104,-0.22358485,0.53567863\O,0,1.2460759,0.8
 992874,0.0495362\C,0,2.34376159,1.34118142,0.62787316\C,0,3.33630687,1
 .81250484,1.08778131\H,0,-1.38075014,1.35245577,-0.75989394\H,0,-1.839
 12008,0.05373607,-1.86092212\H,0,-0.24385097,0.7998828,-1.98903925\H,0

 Normal termination of Gaussian 16 at Wed Apr  9 19:19:08 2025.
