 Gaussian 16, Revision C.01,

 ----------------------------------------------------------------------
 #t hf aug-cc-pvdz symm=none int=(grid=ultrafine) guess=(read,tcheck) s
 table=(opt,rrhf)
 ----------------------------------------------------------------------
 -----
 title
 -----
 Symbolic Z-matrix:
 Charge =  0 Multiplicity = 1

 SCF Done:  E(RHF) =  -342.420685899     A.U. after   16 cycles
 Normal termination of Gaussian 16 at Wed Apr  9 19:04:51 2025.
 Gaussian 16:  ES64L-G16RevC.01  3-Jul-2019

 ----------------------------------------------------------------------
 #t hf aug-cc-pvdz iop(5/13=1,5/36=2,99/5=2) pseudo=read geom=check gue
 ss=(read,tcheck) scf=(maxcycle=1)
 ----------------------------------------------------------------------
 -----
 title
 -----
 Structure from the checkpoint file:  "Grambow2020_wb97xd3_008534_reverse_mol2.chk"
 Charge =  0 Multiplicity = 1

                         Standard orientation:
 ---------------------------------------------------------------------
 Center     Atomic      Atomic             Coordinates (Angstroms)
 Number     Number       Type             X           Y           Z
 ---------------------------------------------------------------------
      1          8           0       -2.100764   -0.634585   -0.162332
      2          6           0       -0.978465   -0.228592   -0.178630
      3          6           0       -0.586566    1.291844   -0.218057
      4          8           0        0.685773    1.291191   -0.403448
      5          6           0        1.339563   -0.019617   -0.451019
      6          6           0        1.293616   -0.728273    0.842194
      7          6           0        0.286829   -1.033750   -0.257950
      8          1           0       -1.072010    1.174671    2.936588
      9          1           0       -1.169241    1.584316    2.318924
     10          1           0        2.156938   -0.042581   -1.154482
     11          1           0        0.958341   -0.174216    1.710876
     12          1           0        2.039856   -1.486577    1.037406
     13          1           0        0.276185   -1.998132   -0.742297
 ---------------------------------------------------------------------

 SCF Done:  E(RHF) =  -342.763021659     A.U. after    2 cycles

 The electronic state is 1-A.
 Alpha  occ. eigenvalues --  -20.64491 -20.56871 -11.35527 -11.34024 -11.32602
 Alpha  occ. eigenvalues --  -11.28825 -11.28135  -1.57661  -1.50196  -1.20940
 Alpha  occ. eigenvalues --   -0.99850  -0.90983  -0.83959  -0.79805  -0.74945
 Alpha  occ. eigenvalues --   -0.68546  -0.66037  -0.63472  -0.61009  -0.59720
 Alpha  occ. eigenvalues --   -0.59096  -0.56529  -0.49620  -0.46797  -0.45425
 Alpha  occ. eigenvalues --   -0.37034
 Alpha virt. eigenvalues --    0.02287   0.03438   0.03944   0.04505   0.05899
 Alpha virt. eigenvalues --    0.07389   0.08045   0.09244   0.09571   0.09982
 Alpha virt. eigenvalues --    0.11445   0.12441   0.13131   0.13923   0.14756

 Mulliken charges:
               1
     1  O   -1.246387
     2  C    1.010223
     3  C    0.207273
     4  O   -1.204285
     5  C    1.423164
     6  C   -0.003157
     7  C    0.323858
     8  H    0.040270
     9  H   -0.020760
    10  H   -0.131259
    11  H   -0.117080
    12  H   -0.111121
    13  H   -0.170739
 Sum of Mulliken charges =  -0.00000

 Dipole moment (field-independent basis, Debye):
    X=              4.7280    Y=             -2.7113    Z=             -0.0112  Tot=              5.4503

 Test job not archived.
 1\1\GINC-SE015\SP\RHF\Aug-CC-pVDZ\C5H6O2\OHZDE\09-Apr-2025\0\\#t hf au
 g-cc-pvdz iop(5/13=1,5/36=2,99/5=2) pseudo=read geom=check guess=(read
 ,tcheck) scf=(maxcycle=1)\\title\\0,1\O,0,1.10982949,2.2005384,0.26112
 81\C,0,0.6018987,1.21085852,-0.17152702\C,0,1.33116591,0.17242119,-1.0
 9709812\O,0,0.40067013,-0.63040699,-1.475069\C,0,-0.93473219,-0.392036
 91,-0.92026975\C,0,-1.00000972,-0.63029864,0.53426591\C,0,-0.82780956,
 0.77485427,-0.02532688\H,0,2.50027691,-0.97562169,1.64449779\H,0,2.660
 85805,-0.814689,0.93239844\H,0,-1.71653548,-0.60915685,-1.63099524\H,0

 Normal termination of Gaussian 16 at Wed Apr  9 19:04:55 2025.
