 Gaussian 16, Revision C.01,

 ----------------------------------------------------------------------
 #t hf aug-cc-pvdz symm=none int=(grid=ultrafine) guess=(read,tcheck) s
 table=(opt,rrhf)
 ----------------------------------------------------------------------
 -----
 title
 -----
 Symbolic Z-matrix:
 Charge =  0 Multiplicity = 1

 SCF Done:  E(RHF) =  -273.129915183     A.U. after   13 cycles
 Normal termination of Gaussian 16 at Wed Apr  9 03:46:08 2025.
 Gaussian 16:  ES64L-G16RevC.01  3-Jul-2019

 ----------------------------------------------------------------------
 #t hf aug-cc-pvdz iop(5/13=1,5/36=2,99/5=2) pseudo=read geom=check gue
 ss=(read,tcheck) scf=(maxcycle=1)
 ----------------------------------------------------------------------
 -----
 title
 -----
 Structure from the checkpoint file:  "Grambow2020_wb97xd3_007780_reverse_mol2.chk"
 Charge =  0 Multiplicity = 1

                         Standard orientation:
 ---------------------------------------------------------------------
 Center     Atomic      Atomic             Coordinates (Angstroms)
 Number     Number       Type             X           Y           Z
 ---------------------------------------------------------------------
      1          6           0       -1.250753    0.986562   -1.013811
      2          6           0       -0.707196   -0.032266   -0.011720
      3          6           0       -1.309843   -1.417138   -0.279211
      4          6           0       -1.036498    0.401809    1.421633
      5          6           0        0.769920   -0.127446   -0.152554
      6          6           0        1.875814    0.190831   -0.728493
      7          6           0        1.997141   -0.788326    0.405577
      8          1           0       -0.817165    1.973108   -0.838400
      9          1           0       -1.014100    0.690650   -2.037862
     10          1           0       -2.336475    1.071266   -0.925892
     11          1           0       -2.394679   -1.387165   -0.152929
     12          1           0       -1.093097   -1.748363   -1.296643
     13          1           0       -0.906341   -2.158580    0.413316
     14          1           0       -0.618117    1.386472    1.638377
     15          1           0       -2.118978    0.452629    1.560009
     16          1           0       -0.631414   -0.307026    2.146400
     17          1           0        1.478850    2.808695    0.641283
     18          1           0        2.413558    0.738402   -1.481805
     19          1           0        1.418314    3.493904    0.930423
     20          1           0        2.399020   -0.457968    1.363919
     21          1           0        2.189121   -1.840187    0.191276
 ---------------------------------------------------------------------

 SCF Done:  E(RHF) =  -273.436126583     A.U. after    2 cycles

 The electronic state is 1-A.
 Alpha  occ. eigenvalues --  -11.25346 -11.24228 -11.23757 -11.23595 -11.22573
 Alpha  occ. eigenvalues --  -11.22488 -11.22374  -1.17021  -1.09603  -0.93916
 Alpha  occ. eigenvalues --   -0.93781  -0.83853  -0.80596  -0.71979  -0.66427
 Alpha  occ. eigenvalues --   -0.62035  -0.61389  -0.59400  -0.58860  -0.55694
 Alpha  occ. eigenvalues --   -0.54768  -0.53567  -0.52298  -0.50221  -0.48404
 Alpha  occ. eigenvalues --   -0.46194  -0.41019  -0.35152
 Alpha virt. eigenvalues --    0.03368   0.03569   0.03910   0.04172   0.05645
 Alpha virt. eigenvalues --    0.06048   0.06278   0.06409   0.06504   0.08918
 Alpha virt. eigenvalues --    0.09214   0.09530   0.09878   0.11465   0.12323

 Mulliken charges:
               1
     1  C    0.122149
     2  C   -2.418363
     3  C    0.060292
     4  C    0.111034
     5  C    0.685910
     6  C    0.255988
     7  C   -0.126428
     8  H    0.193471
     9  H    0.182440
    10  H    0.187418
    11  H    0.177528
    12  H    0.213229
    13  H    0.194884
    14  H    0.184564
    15  H    0.180173
    16  H    0.180692
    17  H   -0.031452
    18  H   -0.393024
    19  H    0.031801
    20  H   -0.006585
    21  H    0.014279
 Sum of Mulliken charges =  -0.00000

 Dipole moment (field-independent basis, Debye):
    X=             -0.7765    Y=              0.2336    Z=             -0.2473  Tot=              0.8478

 Test job not archived.
 1\1\GINC-SE207\SP\RHF\Aug-CC-pVDZ\C7H14\OHZDE\09-Apr-2025\0\\#t hf aug
 -cc-pvdz iop(5/13=1,5/36=2,99/5=2) pseudo=read geom=check guess=(read,
 tcheck) scf=(maxcycle=1)\\title\\0,1\C,0,-0.59604622,1.67838896,0.2324
 8573\C,0,-0.63757772,0.18215615,-0.07930629\C,0,-1.67657645,-0.1066294
 3,-1.17003638\C,0,-0.98446655,-0.61607094,1.18317647\C,0,0.69448264,-0
 .25956363,-0.57049232\C,0,1.91018409,-0.02018615,-0.91802319\C,0,1.479
 0646,-1.45623432,-1.02519347\H,0,0.15025451,1.89460907,0.99950947\H,0,
 -0.34152309,2.25544739,-0.65884502\H,0,-1.56720838,2.02289739,0.595601

 Normal termination of Gaussian 16 at Wed Apr  9 03:46:17 2025.
