 Gaussian 16, Revision C.01,

 ----------------------------------------------------------------------
 #t hf aug-cc-pvdz symm=none int=(grid=ultrafine) guess=(read,tcheck) s
 table=(opt,rrhf)
 ----------------------------------------------------------------------
 -----
 title
 -----
 Symbolic Z-matrix:
 Charge =  0 Multiplicity = 1

 SCF Done:  E(RHF) =  -269.807779753     A.U. after   17 cycles

 1\1\GINC-SE097\Stability\RHF\Aug-CC-pVDZ\C5H10O1\OHZDE\09-Apr-2025\0\\
 #t hf aug-cc-pvdz symm=none int=(grid=ultrafine) guess=(read,tcheck) s
 table=(opt,rrhf)\\title\\0,1\C,0,-1.24421391,-1.19237428,-0.15749268\C
 ,0,-0.38750091,0.05645315,-0.11412722\C,0,-1.16078622,1.34522183,0.057
 43816\C,0,0.99216261,-0.0249714,0.64959712\C,0,1.56069833,-0.1218115,-
 0.67820349\O,0,0.4506536,0.10755481,-1.41285408\H,0,-1.993077,-1.12874
 502,-0.95863527\H,0,-1.77171662,-1.29567882,0.80108248\H,0,-0.62868272
 ,-2.08721219,-0.31181461\H,0,-1.97242934,1.42587472,-0.67846689\H,0,-0

 Normal termination of Gaussian 16 at Wed Apr  9 15:49:02 2025.
 Gaussian 16:  ES64L-G16RevC.01  3-Jul-2019

 ----------------------------------------------------------------------
 #t hf aug-cc-pvdz iop(5/13=1,5/36=2,99/5=2) pseudo=read geom=check gue
 ss=(read,tcheck) scf=(maxcycle=1)
 ----------------------------------------------------------------------
 -----
 title
 -----
 Structure from the checkpoint file:  "Grambow2020_b97d3_006760_forward_mol1.chk"
 Charge =  0 Multiplicity = 1

                         Standard orientation:
 ---------------------------------------------------------------------
 Center     Atomic      Atomic             Coordinates (Angstroms)
 Number     Number       Type             X           Y           Z
 ---------------------------------------------------------------------
      1          6           0        1.136681    1.316954    0.315371
      2          6           0        0.433362   -0.005337    0.086687
      3          6           0        1.356743   -1.197535   -0.033149
      4          6           0       -0.922056   -0.259456    0.855870
      5          6           0       -1.538856    0.055137   -0.415450
      6          8           0       -0.432914    0.127103   -1.187610
      7          1           0        1.862679    1.520334   -0.483527
      8          1           0        1.677950    1.271722    1.270765
      9          1           0        0.416418    2.142924    0.364600
     10          1           0        2.149069   -1.017285   -0.772442
     11          1           0        0.801341   -2.099034   -0.320316
     12          1           0        1.830937   -1.379404    0.942542
     13          1           0       -1.440211    0.308280    1.687850
     14          1           0       -0.949657   -1.299187    1.198945
     15          1           0       -2.495933    0.411421   -0.776032
     16          1           0       -3.184528   -0.335159    1.532523
 ---------------------------------------------------------------------

 SCF Done:  E(RHF) =  -270.092996842     A.U. after    2 cycles

 The electronic state is 1-A.
 Alpha  occ. eigenvalues --  -20.66527 -11.43976 -11.36656 -11.28835 -11.27814
 Alpha  occ. eigenvalues --  -11.27743  -1.57841  -1.13221  -1.07097  -0.99558
 Alpha  occ. eigenvalues --   -0.91217  -0.79030  -0.75488  -0.71604  -0.69682
 Alpha  occ. eigenvalues --   -0.65116  -0.61739  -0.59891  -0.58010  -0.55958
 Alpha  occ. eigenvalues --   -0.54797  -0.53977  -0.52011  -0.22398
 Alpha virt. eigenvalues --    0.01574   0.02074   0.02888   0.03085   0.04083
 Alpha virt. eigenvalues --    0.05436   0.05982   0.06360   0.07263   0.09659
 Alpha virt. eigenvalues --    0.10437   0.11452   0.11938   0.12570   0.12985

 Mulliken charges:
               1
     1  C   -0.321212
     2  C   -0.203027
     3  C   -0.230662
     4  C   -0.010103
     5  C    0.976504
     6  O   -1.286814
     7  H    0.238514
     8  H    0.283431
     9  H    0.170917
    10  H    0.228340
    11  H    0.205690
    12  H    0.291757
    13  H    0.065113
    14  H    0.156290
    15  H   -0.004292
    16  H   -0.560443
 Sum of Mulliken charges =   0.00000

 Dipole moment (field-independent basis, Debye):
    X=              8.1882    Y=              1.0875    Z=             -3.6769  Tot=              9.0415

 Test job not archived.
 1\1\GINC-SE097\SP\RHF\Aug-CC-pVDZ\C5H10O1\OHZDE\09-Apr-2025\0\\#t hf a
 ug-cc-pvdz iop(5/13=1,5/36=2,99/5=2) pseudo=read geom=check guess=(rea
 d,tcheck) scf=(maxcycle=1)\\title\\0,1\C,0,-1.24421391,-1.19237428,-0.
 15749268\C,0,-0.38750091,0.05645315,-0.11412722\C,0,-1.16078622,1.3452
 2183,0.05743816\C,0,0.99216261,-0.0249714,0.64959712\C,0,1.56069833,-0
 .1218115,-0.67820349\O,0,0.4506536,0.10755481,-1.41285408\H,0,-1.99307
 7,-1.12874502,-0.95863527\H,0,-1.77171662,-1.29567882,0.80108248\H,0,-
 0.62868272,-2.08721219,-0.31181461\H,0,-1.97242934,1.42587472,-0.67846

 Normal termination of Gaussian 16 at Wed Apr  9 15:49:07 2025.
