 Gaussian 16, Revision C.01,

 ----------------------------------------------------------------------
 #t hf aug-cc-pvdz symm=none int=(grid=ultrafine) guess=(read,tcheck) s
 table=(opt,rrhf)
 ----------------------------------------------------------------------
 -----
 title
 -----
 Symbolic Z-matrix:
 Charge =  0 Multiplicity = 1

 SCF Done:  E(RHF) =  -283.463621054     A.U. after   18 cycles
 Normal termination of Gaussian 16 at Wed Apr  9 15:43:40 2025.
 Gaussian 16:  ES64L-G16RevC.01  3-Jul-2019

 ----------------------------------------------------------------------
 #t hf aug-cc-pvdz iop(5/13=1,5/36=2,99/5=2) pseudo=read geom=check gue
 ss=(read,tcheck) scf=(maxcycle=1)
 ----------------------------------------------------------------------
 -----
 title
 -----
 Structure from the checkpoint file:  "Grambow2020_b97d3_006727_reverse_mol2.chk"
 Charge =  0 Multiplicity = 1

                         Standard orientation:
 ---------------------------------------------------------------------
 Center     Atomic      Atomic             Coordinates (Angstroms)
 Number     Number       Type             X           Y           Z
 ---------------------------------------------------------------------
      1          6           0       -1.641664   -0.556703   -0.692815
      2          6           0       -1.868337   -0.117561    0.733535
      3          8           0        1.778020    0.700333   -0.537577
      4          6           0        1.481868    0.102455    0.592466
      5          7           0        1.758029   -1.011569    0.045253
      6          6           0       -1.476867    0.815991   -0.088853
      7          1           0       -0.750852   -1.146204   -0.942305
      8          1           0       -2.505766   -0.760748   -1.337710
      9          1           0       -2.172127   -0.425722    1.728202
     10          1           0        1.146808    0.495495    1.553629
     11          1           0       -1.218421    1.850416   -0.283962
 ---------------------------------------------------------------------

 SCF Done:  E(RHF) =  -283.745411420     A.U. after    2 cycles

 The electronic state is 1-A.
 Alpha  occ. eigenvalues --  -20.59102 -15.61367 -11.40258 -11.26499 -11.26277
 Alpha  occ. eigenvalues --  -11.25351  -1.50911  -1.18070  -1.16659  -0.85954
 Alpha  occ. eigenvalues --   -0.82904  -0.77765  -0.69916  -0.69222  -0.64713
 Alpha  occ. eigenvalues --   -0.62497  -0.60073  -0.50885  -0.48638  -0.44666
 Alpha  occ. eigenvalues --   -0.43604  -0.37213
 Alpha virt. eigenvalues --    0.02411   0.02776   0.04096   0.04462   0.04968
 Alpha virt. eigenvalues --    0.07257   0.08983   0.09469   0.10069   0.10517
 Alpha virt. eigenvalues --    0.11296   0.12433   0.14366   0.14487   0.15078

 Mulliken charges:
               1
     1  C   -0.032079
     2  C    0.232810
     3  O   -0.989678
     4  C    0.220747
     5  N    0.597445
     6  C    0.263878
     7  H    0.027877
     8  H   -0.025792
     9  H   -0.205267
    10  H    0.162551
    11  H   -0.252491
 Sum of Mulliken charges =   0.00000

 Dipole moment (field-independent basis, Debye):
    X=             -1.3811    Y=              1.4099    Z=              3.4009  Tot=              3.9321

 Test job not archived.
 1\1\GINC-SE043\SP\RHF\Aug-CC-pVDZ\C4H5N1O1\OHZDE\09-Apr-2025\0\\#t hf
 aug-cc-pvdz iop(5/13=1,5/36=2,99/5=2) pseudo=read geom=check guess=(re
 ad,tcheck) scf=(maxcycle=1)\\title\\0,1\C,0,-1.47537691,0.11618411,0.1
 4526517\C,0,-0.9224843,-0.92519476,-0.79735929\O,0,1.90995486,0.941845
 9,1.22057188\C,0,1.89947513,0.75139963,-0.07780496\N,0,1.49426018,1.94
 775243,-0.223744\C,0,-0.58286007,-1.06021525,0.45464556\H,0,-1.0516981
 7,1.12800857,0.14230917\H,0,-2.53453257,0.07764858,0.42969609\H,0,-0.8
 8673265,-1.2763395,-1.82304609\H,0,2.1558714,-0.11870619,-0.68423361\H

 Normal termination of Gaussian 16 at Wed Apr  9 15:43:45 2025.
