 Gaussian 16, Revision C.01,

 ----------------------------------------------------------------------
 #t hf aug-cc-pvdz symm=none int=(grid=ultrafine) guess=(read,tcheck) s
 table=(opt,rrhf)
 ----------------------------------------------------------------------
 -----
 title
 -----
 Symbolic Z-matrix:
 Charge =  0 Multiplicity = 1

 SCF Done:  E(RHF) =  -323.769374407     A.U. after   15 cycles
 Normal termination of Gaussian 16 at Wed Apr  9 18:28:32 2025.
 Gaussian 16:  ES64L-G16RevC.01  3-Jul-2019

 ----------------------------------------------------------------------
 #t hf aug-cc-pvdz iop(5/13=1,5/36=2,99/5=2) pseudo=read geom=check gue
 ss=(read,tcheck) scf=(maxcycle=1)
 ----------------------------------------------------------------------
 -----
 title
 -----
 Structure from the checkpoint file:  "Grambow2020_wb97xd3_007606_forward_mol1.chk"
 Charge =  0 Multiplicity = 1

                         Standard orientation:
 ---------------------------------------------------------------------
 Center     Atomic      Atomic             Coordinates (Angstroms)
 Number     Number       Type             X           Y           Z
 ---------------------------------------------------------------------
      1          6           0        1.794451    1.322885    0.226307
      2          6           0        1.719225    0.105386   -0.658271
      3          7           0        1.515734   -1.087950    0.124280
      4          6           0        0.148066   -0.771438   -0.272323
      5          6           0       -0.799010   -0.385687    0.830665
      6          6           0       -2.085968    0.213320    0.335411
      7          8           0       -2.323594    0.444339   -0.818389
      8          1           0        1.453480    1.206181    1.260417
      9          1           0        2.867449    1.534962    0.268699
     10          1           0        1.329223    2.192034   -0.241095
     11          1           0        0.319709    0.094817   -1.086123
     12          1           0        1.823597   -1.890501   -0.410507
     13          1           0       -0.263624   -1.492809   -0.975289
     14          1           0       -0.342533    0.324986    1.524065
     15          1           0       -1.037567   -1.261692    1.443602
     16          1           0       -2.831705    0.446165    1.122644
 ---------------------------------------------------------------------

 SCF Done:  E(RHF) =  -324.109072215     A.U. after    2 cycles

 The electronic state is 1-A.
 Alpha  occ. eigenvalues --  -20.56241 -15.51352 -11.35722 -11.31091 -11.27967
 Alpha  occ. eigenvalues --  -11.26976 -11.22955  -1.49757  -1.27644  -1.07081
 Alpha  occ. eigenvalues --   -1.00029  -0.91329  -0.82583  -0.79028  -0.72524
 Alpha  occ. eigenvalues --   -0.68906  -0.65829  -0.63018  -0.60917  -0.59436
 Alpha  occ. eigenvalues --   -0.57143  -0.54557  -0.52705  -0.50599  -0.47553
 Alpha  occ. eigenvalues --   -0.43362  -0.34052
 Alpha virt. eigenvalues --    0.02888   0.03545   0.04359   0.04932   0.05731
 Alpha virt. eigenvalues --    0.06072   0.06305   0.08073   0.08826   0.10211
 Alpha virt. eigenvalues --    0.11309   0.12331   0.12994   0.13489   0.13709

 Mulliken charges:
               1
     1  C   -0.234550
     2  C   -0.950485
     3  N    0.506420
     4  C   -0.836667
     5  C   -0.438490
     6  C    1.126461
     7  O   -1.142531
     8  H    0.159279
     9  H    0.146104
    10  H    0.205983
    11  H    0.505430
    12  H    0.363301
    13  H   -0.056300
    14  H    0.269371
    15  H    0.266433
    16  H    0.110240
 Sum of Mulliken charges =  -0.00000

 Dipole moment (field-independent basis, Debye):
    X=             -1.2207    Y=             -0.9309    Z=              2.6966  Tot=              3.1030

 Test job not archived.
 1\1\GINC-SE105\SP\RHF\Aug-CC-pVDZ\C5H9N1O1\OHZDE\09-Apr-2025\0\\#t hf
 aug-cc-pvdz iop(5/13=1,5/36=2,99/5=2) pseudo=read geom=check guess=(re
 ad,tcheck) scf=(maxcycle=1)\\title\\0,1\C,0,-1.52620549,0.06713395,1.3
 2803649\C,0,-1.70331311,0.16369133,-0.16519856\N,0,-0.95667955,1.27393
 469,-0.70161636\C,0,-0.02901082,0.17128257,-0.92872343\C,0,1.26271676,
 0.2108152,-0.15916743\C,0,2.02822235,-1.08239414,-0.2034082\O,0,1.6295
 2889,-2.08579632,-0.72811563\H,0,-0.70837811,0.64692343,1.76879356\H,0
 ,-2.45851548,0.48773552,1.71789605\H,0,-1.4939605,-0.96988563,1.665487

 Normal termination of Gaussian 16 at Wed Apr  9 18:28:38 2025.
