 Gaussian 16, Revision C.01,

 ----------------------------------------------------------------------
 #t hf aug-cc-pvdz symm=none int=(grid=ultrafine) guess=(read,tcheck) s
 table=(opt,rrhf)
 ----------------------------------------------------------------------
 -----
 title
 -----
 Symbolic Z-matrix:
 Charge =  0 Multiplicity = 1

 SCF Done:  E(RHF) =  -359.757602071     A.U. after   15 cycles
 Normal termination of Gaussian 16 at Wed Apr  9 18:17:42 2025.
 Gaussian 16:  ES64L-G16RevC.01  3-Jul-2019

 ----------------------------------------------------------------------
 #t hf aug-cc-pvdz iop(5/13=1,5/36=2,99/5=2) pseudo=read geom=check gue
 ss=(read,tcheck) scf=(maxcycle=1)
 ----------------------------------------------------------------------
 -----
 title
 -----
 Structure from the checkpoint file:  "Grambow2020_wb97xd3_007283_forward_mol2.chk"
 Charge =  0 Multiplicity = 1

                         Standard orientation:
 ---------------------------------------------------------------------
 Center     Atomic      Atomic             Coordinates (Angstroms)
 Number     Number       Type             X           Y           Z
 ---------------------------------------------------------------------
      1          8           0       -1.769341   -1.041265   -0.152399
      2          6           0       -0.552548   -0.621109    0.381831
      3          6           0        0.680759   -1.295125   -0.204857
      4          7           0        1.731562   -0.352884    0.180961
      5          6           0        1.236900    0.990290   -0.087723
      6          6           0       -0.258630    0.841989    0.089406
      7          8           0       -1.103666    1.680905   -0.064767
      8          1           0       -2.331210   -0.260400   -0.222701
      9          1           0       -0.526828   -0.739914    1.476335
     10          1           0        0.873109   -2.281168    0.216202
     11          1           0        0.540489   -1.395398   -1.291701
     12          1           0        2.616720   -0.547652   -0.259395
     13          1           0        1.403055    1.345846   -1.115645
     14          1           0        1.648903    1.735477    0.595569
 ---------------------------------------------------------------------

 SCF Done:  E(RHF) =  -360.125181647     A.U. after    2 cycles

 The electronic state is 1-A.
 Alpha  occ. eigenvalues --  -20.55892 -20.55612 -15.50851 -11.34864 -11.30212
 Alpha  occ. eigenvalues --  -11.28338 -11.27522  -1.49988  -1.46371  -1.25057
 Alpha  occ. eigenvalues --   -1.02930  -1.00207  -0.85540  -0.78677  -0.73445
 Alpha  occ. eigenvalues --   -0.70966  -0.68840  -0.65091  -0.62321  -0.60154
 Alpha  occ. eigenvalues --   -0.59127  -0.56718  -0.55119  -0.51204  -0.45775
 Alpha  occ. eigenvalues --   -0.42964  -0.41276
 Alpha virt. eigenvalues --    0.03053   0.04328   0.04621   0.05021   0.05950
 Alpha virt. eigenvalues --    0.06157   0.06724   0.08705   0.10900   0.11804
 Alpha virt. eigenvalues --    0.12850   0.13624   0.14382   0.14738   0.14991

 Mulliken charges:
               1
     1  O   -1.354581
     2  C    0.767766
     3  C   -0.185368
     4  N    0.311092
     5  C   -0.553931
     6  C    1.124733
     7  O   -1.386238
     8  H    0.271094
     9  H    0.276176
    10  H    0.096467
    11  H    0.069748
    12  H    0.188875
    13  H    0.197041
    14  H    0.177127
 Sum of Mulliken charges =  -0.00000

 Dipole moment (field-independent basis, Debye):
    X=              2.6246    Y=             -0.5440    Z=             -0.4782  Tot=              2.7227

 Test job not archived.
 1\1\GINC-SE226\SP\RHF\Aug-CC-pVDZ\C4H7N1O2\OHZDE\09-Apr-2025\0\\#t hf
 aug-cc-pvdz iop(5/13=1,5/36=2,99/5=2) pseudo=read geom=check guess=(re
 ad,tcheck) scf=(maxcycle=1)\\title\\0,1\O,0,2.23441204,-0.05366938,0.1
 0371607\C,0,0.87180759,0.0604609,0.37353196\C,0,0.16652525,1.21496916,
 -0.32592041\N,0,-1.23126094,0.79192505,-0.23598789\C,0,-1.28434779,-0.
 62301233,-0.5767682\C,0,0.07231486,-1.12841934,-0.13630278\O,0,0.51382
 624,-2.23953656,-0.24639591\H,0,2.43052048,-0.99561741,0.03541803\H,0,
 0.67684705,0.13699785,1.45466498\H,0,0.31250578,2.17285453,0.1717902\H

 Normal termination of Gaussian 16 at Wed Apr  9 18:17:47 2025.
