 Gaussian 16, Revision C.01,

 ----------------------------------------------------------------------
 #t hf aug-cc-pvdz symm=none int=(grid=ultrafine) guess=(read,tcheck) s
 table=(opt,rrhf)
 ----------------------------------------------------------------------
 -----
 title
 -----
 Symbolic Z-matrix:
 Charge =  0 Multiplicity = 1

 SCF Done:  E(RHF) =  -308.999685649     A.U. after   15 cycles

 1\1\GINC-SE232\Stability\RHF\Aug-CC-pVDZ\C6H12O1\OHZDE\09-Apr-2025\0\\
 #t hf aug-cc-pvdz symm=none int=(grid=ultrafine) guess=(read,tcheck) s
 table=(opt,rrhf)\\title\\0,1\C,0,1.57805197,-0.30281471,-0.80533734\C,
 0,0.62864036,0.58410239,-0.03061385\O,0,0.20521489,1.6428622,-0.942233
 01\C,0,0.27991321,2.85095904,-0.50429469\C,0,-0.62839672,-0.08823852,0
 .52129712\C,0,-0.2736266,-1.04445873,1.65669563\C,0,-1.46444487,-0.779
 87565,-0.55127116\H,0,2.45011334,0.26867841,-1.12438458\H,0,1.92418554
 ,-1.12528738,-0.1787246\H,0,1.09908982,-0.71979549,-1.69171499\H,0,1.1

 Normal termination of Gaussian 16 at Wed Apr  9 17:20:57 2025.
 Gaussian 16:  ES64L-G16RevC.01  3-Jul-2019

 ----------------------------------------------------------------------
 #t hf aug-cc-pvdz iop(5/13=1,5/36=2,99/5=2) pseudo=read geom=check gue
 ss=(read,tcheck) scf=(maxcycle=1)
 ----------------------------------------------------------------------
 -----
 title
 -----
 Structure from the checkpoint file:  "Grambow2020_wb97xd3_006575_reverse_mol2.chk"
 Charge =  0 Multiplicity = 1

                         Standard orientation:
 ---------------------------------------------------------------------
 Center     Atomic      Atomic             Coordinates (Angstroms)
 Number     Number       Type             X           Y           Z
 ---------------------------------------------------------------------
      1          6           0        0.267541    1.687295    0.588148
      2          6           0        0.386200    0.451570   -0.276203
      3          8           0        1.551242   -0.285851    0.203587
      4          6           0        2.402441   -0.668189   -0.683061
      5          6           0       -0.808707   -0.501746   -0.262857
      6          6           0       -2.006367    0.125597   -0.970954
      7          6           0       -1.177988   -0.988555    1.135138
      8          1           0        1.157231    2.308282    0.479920
      9          1           0       -0.596429    2.279551    0.285324
     10          1           0        0.157819    1.427085    1.641332
     11          1           0        0.617628    0.717497   -1.310533
     12          1           0        3.166441   -1.206064   -0.075189
     13          1           0       -0.487695   -1.366923   -0.854043
     14          1           0       -1.746365    0.468355   -1.974781
     15          1           0       -2.402048    0.977378   -0.412387
     16          1           0       -2.813290   -0.602877   -1.065955
     17          1           0       -1.588833   -0.180600    1.745185
     18          1           0       -0.313762   -1.402356    1.656465
     19          1           0       -1.939350   -1.768349    1.074709
 ---------------------------------------------------------------------

 SCF Done:  E(RHF) =  -309.328739964     A.U. after    2 cycles

 The electronic state is 1-A.
 Alpha  occ. eigenvalues --  -20.60546 -11.29627 -11.29561 -11.24155 -11.23421
 Alpha  occ. eigenvalues --  -11.23098 -11.22570  -1.53474  -1.11277  -1.01815
 Alpha  occ. eigenvalues --   -0.94193  -0.90933  -0.83789  -0.76282  -0.68864
 Alpha  occ. eigenvalues --   -0.64786  -0.63747  -0.61885  -0.58321  -0.56732
 Alpha  occ. eigenvalues --   -0.56207  -0.54769  -0.53364  -0.52235  -0.49186
 Alpha  occ. eigenvalues --   -0.47744  -0.46513  -0.35330
 Alpha virt. eigenvalues --    0.03495   0.03638   0.03836   0.04228   0.05871
 Alpha virt. eigenvalues --    0.06059   0.06176   0.06454   0.07072   0.09137
 Alpha virt. eigenvalues --    0.09785   0.09930   0.10339   0.11736   0.13891

 Mulliken charges:
               1
     1  C   -0.274809
     2  C    0.895658
     3  O   -1.203211
     4  C   -0.060504
     5  C   -1.334227
     6  C   -0.064365
     7  C   -0.005608
     8  H    0.131844
     9  H    0.201913
    10  H    0.232441
    11  H    0.189421
    12  H    0.032173
    13  H    0.218660
    14  H    0.161472
    15  H    0.207990
    16  H    0.142118
    17  H    0.235823
    18  H    0.175941
    19  H    0.117271
 Sum of Mulliken charges =   0.00000

 Dipole moment (field-independent basis, Debye):
    X=             -1.7609    Y=              0.6443    Z=              1.1606  Tot=              2.2053

 Test job not archived.
 1\1\GINC-SE232\SP\RHF\Aug-CC-pVDZ\C6H12O1\OHZDE\09-Apr-2025\0\\#t hf a
 ug-cc-pvdz iop(5/13=1,5/36=2,99/5=2) pseudo=read geom=check guess=(rea
 d,tcheck) scf=(maxcycle=1)\\title\\0,1\C,0,1.57805197,-0.30281471,-0.8
 0533734\C,0,0.62864036,0.58410239,-0.03061385\O,0,0.20521489,1.6428622
 ,-0.94223301\C,0,0.27991321,2.85095904,-0.50429469\C,0,-0.62839672,-0.
 08823852,0.52129712\C,0,-0.2736266,-1.04445873,1.65669563\C,0,-1.46444
 487,-0.77987565,-0.55127116\H,0,2.45011334,0.26867841,-1.12438458\H,0,
 1.92418554,-1.12528738,-0.1787246\H,0,1.09908982,-0.71979549,-1.691714

 Normal termination of Gaussian 16 at Wed Apr  9 17:21:05 2025.
