 Gaussian 16, Revision C.01,

 ----------------------------------------------------------------------
 #t hf aug-cc-pvdz symm=none int=(grid=ultrafine) guess=(read,tcheck) s
 table=(opt,rrhf)
 ----------------------------------------------------------------------
 -----
 title
 -----
 Symbolic Z-matrix:
 Charge =  0 Multiplicity = 1

 SCF Done:  E(RHF) =  -342.382281555     A.U. after   18 cycles
 Normal termination of Gaussian 16 at Wed Apr  9 19:04:54 2025.
 Gaussian 16:  ES64L-G16RevC.01  3-Jul-2019

 ----------------------------------------------------------------------
 #t hf aug-cc-pvdz iop(5/13=1,5/36=2,99/5=2) pseudo=read geom=check gue
 ss=(read,tcheck) scf=(maxcycle=1)
 ----------------------------------------------------------------------
 -----
 title
 -----
 Structure from the checkpoint file:  "Grambow2020_wb97xd3_008526_forward_mol1.chk"
 Charge =  0 Multiplicity = 1

                         Standard orientation:
 ---------------------------------------------------------------------
 Center     Atomic      Atomic             Coordinates (Angstroms)
 Number     Number       Type             X           Y           Z
 ---------------------------------------------------------------------
      1          8           0        2.120145    0.106815   -0.442566
      2          6           0        0.994553   -0.094387   -0.038613
      3          6           0        0.471120   -1.209696    0.711579
      4          8           0       -1.335919   -1.141123   -0.114499
      5          6           0       -1.338261   -0.051414   -0.682440
      6          6           0       -0.539490    1.538863    0.812108
      7          6           0       -0.189361    0.849941   -0.411360
      8          1           0       -0.021065   -1.101866    1.662366
      9          1           0        0.867300   -2.190997    0.479560
     10          1           0       -2.161182    0.238331   -1.336155
     11          1           0       -0.939354    0.993572    1.654306
     12          1           0       -0.493347    2.615689    0.872187
     13          1           0        0.082474    1.519893   -1.223394
 ---------------------------------------------------------------------

 SCF Done:  E(RHF) =  -342.725458187     A.U. after    2 cycles

 The electronic state is 1-A.
 Alpha  occ. eigenvalues --  -20.61447 -20.53976 -11.37647 -11.36484 -11.35473
 Alpha  occ. eigenvalues --  -11.27432 -11.22050  -1.53778  -1.47340  -1.12270
 Alpha  occ. eigenvalues --   -1.04385  -0.88943  -0.83997  -0.78704  -0.74021
 Alpha  occ. eigenvalues --   -0.69564  -0.67888  -0.64354  -0.63143  -0.61304
 Alpha  occ. eigenvalues --   -0.56308  -0.54366  -0.50959  -0.47571  -0.43008
 Alpha  occ. eigenvalues --   -0.24567
 Alpha virt. eigenvalues --    0.01379   0.03221   0.03504   0.04347   0.04893
 Alpha virt. eigenvalues --    0.05900   0.07367   0.08240   0.09099   0.10019
 Alpha virt. eigenvalues --    0.11987   0.13023   0.13770   0.14213   0.14416

 Mulliken charges:
               1
     1  O   -1.381043
     2  C    1.457260
     3  C    0.076706
     4  O   -1.143279
     5  C    1.237215
     6  C   -0.051277
     7  C   -0.150636
     8  H    0.122688
     9  H    0.059723
    10  H    0.064593
    11  H   -0.110348
    12  H   -0.156536
    13  H   -0.025067
 Sum of Mulliken charges =  -0.00000

 Dipole moment (field-independent basis, Debye):
    X=             -2.3436    Y=             -2.2167    Z=             -0.4032  Tot=              3.2510

 Test job not archived.
 1\1\GINC-SE083\SP\RHF\Aug-CC-pVDZ\C5H6O2\OHZDE\09-Apr-2025\0\\#t hf au
 g-cc-pvdz iop(5/13=1,5/36=2,99/5=2) pseudo=read geom=check guess=(read
 ,tcheck) scf=(maxcycle=1)\\title\\0,1\O,0,0.87413151,2.14897986,0.5376
 7076\C,0,0.67202658,0.98374159,0.26935684\C,0,1.60575421,-0.10943932,0
 .15191592\O,0,0.58989046,-1.05239625,-1.27333798\C,0,-0.49965274,-0.48
 436349,-1.25714723\C,0,-1.20300122,-0.34328821,0.95330316\C,0,-0.74140
 185,0.47370874,-0.14829569\H,0,1.52883537,-1.01513726,0.72781767\H,0,2
 .57708688,0.11361165,-0.27294303\H,0,-1.25426085,-0.69733856,-2.014579

 Normal termination of Gaussian 16 at Wed Apr  9 19:04:58 2025.
