 Gaussian 16, Revision C.01,

 ----------------------------------------------------------------------
 #t hf aug-cc-pvdz symm=none int=(grid=ultrafine) guess=(read,tcheck) s
 table=(opt,rrhf)
 ----------------------------------------------------------------------
 -----
 title
 -----
 Symbolic Z-matrix:
 Charge =  0 Multiplicity = 1

 SCF Done:  E(RHF) =  -357.396265309     A.U. after   15 cycles
 Normal termination of Gaussian 16 at Wed Apr  9 19:08:35 2025.
 Gaussian 16:  ES64L-G16RevC.01  3-Jul-2019

 ----------------------------------------------------------------------
 #t hf aug-cc-pvdz iop(5/13=1,5/36=2,99/5=2) pseudo=read geom=check gue
 ss=(read,tcheck) scf=(maxcycle=1)
 ----------------------------------------------------------------------
 -----
 title
 -----
 Structure from the checkpoint file:  "Grambow2020_wb97xd3_008634_reverse_mol2.chk"
 Charge =  0 Multiplicity = 1

                         Standard orientation:
 ---------------------------------------------------------------------
 Center     Atomic      Atomic             Coordinates (Angstroms)
 Number     Number       Type             X           Y           Z
 ---------------------------------------------------------------------
      1          7           0       -0.978409    1.989195   -0.488849
      2          6           0       -1.198518    0.973601    0.111422
      3          6           0       -1.525498   -0.171640    0.686773
      4          6           0       -1.048114   -1.429325    0.116627
      5          6           0        2.129187    0.638671    0.170642
      6          8           0       -0.296363   -1.525797   -0.823868
      7          8           0        2.846140   -0.223847    0.200763
      8          1           0       -0.120758    2.500083   -0.308842
      9          1           0       -2.138789   -0.161432    1.576943
     10          1           0       -1.432154   -2.333699    0.625891
 ---------------------------------------------------------------------

 SCF Done:  E(RHF) =  -357.740449585     A.U. after    2 cycles

 The electronic state is 1-A.
 Alpha  occ. eigenvalues --  -20.65384 -20.53878 -15.55556 -11.37131 -11.36401
 Alpha  occ. eigenvalues --  -11.35159 -11.25990  -1.60774  -1.47455  -1.29302
 Alpha  occ. eigenvalues --   -1.07912  -0.88303  -0.82407  -0.80778  -0.71143
 Alpha  occ. eigenvalues --   -0.69021  -0.63825  -0.63676  -0.62673  -0.62083
 Alpha  occ. eigenvalues --   -0.56153  -0.54503  -0.54073  -0.42682  -0.38456
 Alpha virt. eigenvalues --    0.02934   0.04075   0.05001   0.06824   0.07953
 Alpha virt. eigenvalues --    0.08309   0.08954   0.10026   0.11435   0.11644
 Alpha virt. eigenvalues --    0.12182   0.13393   0.14263   0.14455   0.15518

 Mulliken charges:
               1
     1  N    0.856688
     2  C   -1.762324
     3  C    1.072603
     4  C    0.824018
     5  C    0.445779
     6  O   -1.141457
     7  O   -0.483761
     8  H    0.200667
     9  H   -0.137520
    10  H    0.125306
 Sum of Mulliken charges =  -0.00000

 Dipole moment (field-independent basis, Debye):
    X=             -0.5923    Y=              1.1049    Z=              3.0859  Tot=              3.3308

 Test job not archived.
 1\1\GINC-SE056\SP\RHF\Aug-CC-pVDZ\C4H3N1O2\OHZDE\09-Apr-2025\0\\#t hf
 aug-cc-pvdz iop(5/13=1,5/36=2,99/5=2) pseudo=read geom=check guess=(re
 ad,tcheck) scf=(maxcycle=1)\\title\\0,1\N,0,2.1227646,-0.11892953,0.40
 306192\C,0,1.06683334,-0.64893348,0.19256264\C,0,-0.094921,-1.27081186
 ,0.07803849\C,0,-1.29764281,-0.66620419,0.64605578\C,0,0.22305852,2.26
 500027,-1.21681234\O,0,-1.34925518,0.42181354,1.16808963\O,0,-0.731510
 69,2.83602935,-1.36375155\H,0,2.45952484,0.59461077,-0.23445374\H,0,-0
 .14005527,-2.21821086,-0.44064407\H,0,-2.20503135,-1.29408703,0.561576

 Normal termination of Gaussian 16 at Wed Apr  9 19:08:39 2025.
