 Gaussian 16, Revision C.01,

 ----------------------------------------------------------------------
 #t hf aug-cc-pvdz symm=none int=(grid=ultrafine) guess=(read,tcheck) s
 table=(opt,rrhf)
 ----------------------------------------------------------------------
 -----
 title
 -----
 Symbolic Z-matrix:
 Charge =  0 Multiplicity = 1

 SCF Done:  E(RHF) =  -343.565999481     A.U. after   14 cycles
 Normal termination of Gaussian 16 at Wed Apr  9 17:33:40 2025.
 Gaussian 16:  ES64L-G16RevC.01  3-Jul-2019

 ----------------------------------------------------------------------
 #t hf aug-cc-pvdz iop(5/13=1,5/36=2,99/5=2) pseudo=read geom=check gue
 ss=(read,tcheck) scf=(maxcycle=1)
 ----------------------------------------------------------------------
 -----
 title
 -----
 Structure from the checkpoint file:  "Grambow2020_wb97xd3_006723_forward_mol1.chk"
 Charge =  0 Multiplicity = 1

                         Standard orientation:
 ---------------------------------------------------------------------
 Center     Atomic      Atomic             Coordinates (Angstroms)
 Number     Number       Type             X           Y           Z
 ---------------------------------------------------------------------
      1          8           0        2.525002    0.151750   -0.177793
      2          6           0        1.405364   -0.692553   -0.032779
      3          6           0        0.253062    0.032100    0.612590
      4          8           0       -0.219039    1.155553   -0.185229
      5          6           0       -1.550311    0.717540   -0.061262
      6          6           0       -1.784688   -0.976360   -0.645042
      7          6           0       -1.161170   -0.586070    0.621354
      8          1           0        2.265682    0.891848   -0.732244
      9          1           0        1.098679   -1.111942   -0.997653
     10          1           0        1.710221   -1.519604    0.612645
     11          1           0        0.546368    0.407196    1.596447
     12          1           0       -2.273879    1.385827    0.398722
     13          1           0       -1.035762   -0.988699   -1.448924
     14          1           0       -2.116163    0.404661   -1.048475
     15          1           0       -1.616389   -0.895651    1.554494
 ---------------------------------------------------------------------

 SCF Done:  E(RHF) =  -343.918815433     A.U. after    2 cycles

 The electronic state is 1-A.
 Alpha  occ. eigenvalues --  -20.57525 -20.55542 -11.34514 -11.31048 -11.29479
 Alpha  occ. eigenvalues --  -11.26799 -11.26697  -1.51121  -1.45858  -1.14420
 Alpha  occ. eigenvalues --   -1.03256  -0.90686  -0.85483  -0.78683  -0.73197
 Alpha  occ. eigenvalues --   -0.70899  -0.67018  -0.64352  -0.60471  -0.59737
 Alpha  occ. eigenvalues --   -0.58365  -0.53406  -0.50588  -0.47508  -0.45846
 Alpha  occ. eigenvalues --   -0.43427  -0.36177
 Alpha virt. eigenvalues --    0.03067   0.03549   0.04115   0.04589   0.05965
 Alpha virt. eigenvalues --    0.06232   0.06808   0.08853   0.09855   0.10933
 Alpha virt. eigenvalues --    0.11725   0.12923   0.14281   0.14301   0.14723

 Mulliken charges:
               1
     1  O   -1.159062
     2  C    0.698835
     3  C    0.688199
     4  O   -1.424365
     5  C    0.593008
     6  C   -0.616150
     7  C    0.304621
     8  H    0.302841
     9  H    0.116676
    10  H    0.144133
    11  H   -0.023814
    12  H    0.010802
    13  H    0.139610
    14  H    0.355526
    15  H   -0.130861
 Sum of Mulliken charges =   0.00000

 Dipole moment (field-independent basis, Debye):
    X=             -0.5492    Y=              0.8333    Z=              0.8490  Tot=              1.3103

 Test job not archived.
 1\1\GINC-SE045\SP\RHF\Aug-CC-pVDZ\C5H8O2\OHZDE\09-Apr-2025\0\\#t hf au
 g-cc-pvdz iop(5/13=1,5/36=2,99/5=2) pseudo=read geom=check guess=(read
 ,tcheck) scf=(maxcycle=1)\\title\\0,1\O,0,2.42697691,0.78728412,0.8010
 0674\C,0,1.62278096,0.14375166,-0.16159454\C,0,0.37794374,-0.43210161,
 0.46145934\O,0,-0.47757935,0.58945882,1.04970824\C,0,-1.60390617,0.061
 4166,0.3923888\C,0,-1.38895551,-0.02528638,-1.39962277\C,0,-0.7859267,
 -0.93210731,-0.42039243\H,0,1.90972875,1.49708036,1.18966094\H,0,1.359
 17356,0.8266546,-0.97711851\H,0,2.21766428,-0.67017574,-0.5824979\H,0,

 Normal termination of Gaussian 16 at Wed Apr  9 17:33:49 2025.
