 Gaussian 16, Revision C.01,

 ----------------------------------------------------------------------
 #t hf aug-cc-pvdz symm=none int=(grid=ultrafine) guess=(read,tcheck) s
 table=(opt,rrhf)
 ----------------------------------------------------------------------
 -----
 title
 -----
 Symbolic Z-matrix:
 Charge =  0 Multiplicity = 1

 SCF Done:  E(RHF) =  -301.976051926     A.U. after   13 cycles
 Normal termination of Gaussian 16 at Wed Apr  9 03:15:00 2025.
 Gaussian 16:  ES64L-G16RevC.01  3-Jul-2019

 ----------------------------------------------------------------------
 #t hf aug-cc-pvdz iop(5/13=1,5/36=2,99/5=2) pseudo=read geom=check gue
 ss=(read,tcheck) scf=(maxcycle=1)
 ----------------------------------------------------------------------
 -----
 title
 -----
 Structure from the checkpoint file:  "Grambow2020_b97d3_006946_reverse_mol2.chk"
 Charge =  0 Multiplicity = 1

                         Standard orientation:
 ---------------------------------------------------------------------
 Center     Atomic      Atomic             Coordinates (Angstroms)
 Number     Number       Type             X           Y           Z
 ---------------------------------------------------------------------
      1          6           0        2.224087   -0.494230    0.118442
      2          7           0        1.176976    0.468748   -0.209751
      3          6           0       -0.134935    0.147309   -0.060540
      4          8           0       -0.564842   -1.161496   -0.055507
      5          7           0       -1.230888    0.849822    0.039315
      6          6           0       -1.887035   -0.459717    0.054380
      7          1           0        2.402675   -0.587588    1.202812
      8          1           0        3.155753   -0.188485   -0.372461
      9          1           0        1.933064   -1.474851   -0.271910
     10          1           0        1.371145    1.449107   -0.028664
     11          1           0       -0.380472    3.276802    0.122253
     12          1           0        0.086993    3.861641    0.136857
     13          1           0       -2.505310   -0.698985   -0.821348
     14          1           0       -2.380421   -0.735835    0.995881
 ---------------------------------------------------------------------

 SCF Done:  E(RHF) =  -302.291310331     A.U. after    2 cycles

 The electronic state is 1-A.
 Alpha  occ. eigenvalues --  -20.58244 -15.53813 -15.47373 -11.38144 -11.33166
 Alpha  occ. eigenvalues --  -11.28632  -1.52699  -1.25901  -1.19673  -0.98427
 Alpha  occ. eigenvalues --   -0.91302  -0.80578  -0.71747  -0.70336  -0.69108
 Alpha  occ. eigenvalues --   -0.63957  -0.63051  -0.58307  -0.57932  -0.55961
 Alpha  occ. eigenvalues --   -0.52978  -0.47018  -0.46964  -0.39795
 Alpha virt. eigenvalues --    0.03340   0.04542   0.04981   0.05169   0.05699
 Alpha virt. eigenvalues --    0.06235   0.07950   0.08407   0.10614   0.11759
 Alpha virt. eigenvalues --    0.13107   0.13710   0.13823   0.14712   0.15462

 Mulliken charges:
               1
     1  C   -0.392329
     2  N    0.509184
     3  C   -0.597065
     4  O   -1.380475
     5  N    0.734792
     6  C    0.433128
     7  H    0.169640
     8  H    0.081539
     9  H    0.110064
    10  H    0.223125
    11  H    0.020924
    12  H   -0.002678
    13  H    0.048220
    14  H    0.041931
 Sum of Mulliken charges =  -0.00000

 Dipole moment (field-independent basis, Debye):
    X=              2.1396    Y=             -1.2913    Z=              0.5431  Tot=              2.5574

 Test job not archived.
 1\1\GINC-SE073\SP\RHF\Aug-CC-pVDZ\C3H8N2O1\OHZDE\09-Apr-2025\0\\#t hf
 aug-cc-pvdz iop(5/13=1,5/36=2,99/5=2) pseudo=read geom=check guess=(re
 ad,tcheck) scf=(maxcycle=1)\\title\\0,1\C,0,-2.05907671,0.25793298,0.5
 2074339\N,0,-0.70659283,-0.27819596,0.64253331\C,0,0.20587439,-0.09485
 606,-0.34766301\O,0,-0.17509509,0.16338453,-1.64612045\N,0,1.50884895,
 -0.16053727,-0.39815579\C,0,1.31380827,0.10298324,-1.82579812\H,0,-2.1
 143828,1.3424862,0.71349286\H,0,-2.71445055,-0.26483884,1.22761111\H,0
 ,-2.42192612,0.06601891,-0.49424176\H,0,-0.29228899,-0.29321417,1.5697

 Normal termination of Gaussian 16 at Wed Apr  9 03:15:04 2025.
