 Gaussian 16, Revision C.01,

 ----------------------------------------------------------------------
 #t hf aug-cc-pvdz symm=none int=(grid=ultrafine) guess=(read,tcheck) s
 table=(opt,rrhf)
 ----------------------------------------------------------------------
 -----
 title
 -----
 Symbolic Z-matrix:
 Charge =  0 Multiplicity = 1

 SCF Done:  E(RHF) =  -271.147379343     A.U. after   12 cycles

 1\1\GINC-SE113\Stability\RHF\Aug-CC-pVDZ\C5H12O1\OHZDE\09-Apr-2025\0\\
 #t hf aug-cc-pvdz symm=none int=(grid=ultrafine) guess=(read,tcheck) s
 table=(opt,rrhf)\\title\\0,1\C,0,-2.75391994,0.03997039,0.02326874\C,0
 ,-1.2538457,-0.30515454,0.03825817\C,0,-0.45722059,0.68249881,0.860108
 26\O,0,0.36080219,0.39999416,1.71835704\C,0,2.22747295,-0.14952368,-1.
 24596958\C,0,2.4217563,1.1494725,-0.98223958\H,0,-3.29979359,-0.639726
 08,-0.64357028\H,0,-3.18842937,-0.04574548,1.02848513\H,0,-2.92018595,
 1.06709807,-0.33252216\H,0,-1.06884685,-1.31930444,0.41433008\H,0,-0.8

 Normal termination of Gaussian 16 at Wed Apr  9 15:50:01 2025.
 Gaussian 16:  ES64L-G16RevC.01  3-Jul-2019

 ----------------------------------------------------------------------
 #t hf aug-cc-pvdz iop(5/13=1,5/36=2,99/5=2) pseudo=read geom=check gue
 ss=(read,tcheck) scf=(maxcycle=1)
 ----------------------------------------------------------------------
 -----
 title
 -----
 Structure from the checkpoint file:  "Grambow2020_b97d3_006798_reverse_mol2.chk"
 Charge =  0 Multiplicity = 1

                         Standard orientation:
 ---------------------------------------------------------------------
 Center     Atomic      Atomic             Coordinates (Angstroms)
 Number     Number       Type             X           Y           Z
 ---------------------------------------------------------------------
      1          6           0       -2.691456   -0.874411    0.053109
      2          6           0       -1.298271   -0.349146    0.443864
      3          6           0       -0.658610    0.437850   -0.677288
      4          8           0       -0.142343    1.536982   -0.572703
      5          6           0        2.398141   -0.564634    0.732217
      6          6           0        2.648256   -0.540254   -0.583663
      7          1           0       -3.101598   -1.509718    0.848602
      8          1           0       -3.391914   -0.045615   -0.117372
      9          1           0       -2.644386   -1.474512   -0.867155
     10          1           0       -1.331641    0.272546    1.347490
     11          1           0       -0.627938   -1.202500    0.646523
     12          1           0       -0.686147   -0.086773   -1.666731
     13          1           0        0.160654    2.537936    1.785878
     14          1           0        1.837336    0.235101    1.217760
     15          1           0        2.749937   -1.377551    1.370022
     16          1           0        3.215562   -1.331739   -1.076744
     17          1           0        0.270842    2.749202    2.493817
     18          1           0        2.299683    0.281333   -1.209898
 ---------------------------------------------------------------------

 SCF Done:  E(RHF) =  -271.440510446     A.U. after    2 cycles

 The electronic state is 1-A.
 Alpha  occ. eigenvalues --  -20.54846 -11.34722 -11.25472 -11.25065 -11.24253
 Alpha  occ. eigenvalues --  -11.24116  -1.47022  -1.07027  -1.03172  -0.90789
 Alpha  occ. eigenvalues --   -0.79986  -0.79090  -0.67443  -0.64692  -0.64544
 Alpha  occ. eigenvalues --   -0.62031  -0.59744  -0.57876  -0.56469  -0.54602
 Alpha  occ. eigenvalues --   -0.52243  -0.51020  -0.49377  -0.41660  -0.38164
 Alpha virt. eigenvalues --    0.03172   0.03505   0.03865   0.05188   0.05688
 Alpha virt. eigenvalues --    0.06026   0.06906   0.07140   0.07990   0.09103
 Alpha virt. eigenvalues --    0.09179   0.09898   0.10775   0.12985   0.13254

 Mulliken charges:
               1
     1  C   -0.390235
     2  C   -0.632707
     3  C    1.088260
     4  O   -1.109028
     5  C    0.097492
     6  C    0.078059
     7  H    0.141142
     8  H    0.190029
     9  H    0.173148
    10  H    0.133800
    11  H    0.294393
    12  H    0.146058
    13  H   -0.034892
    14  H   -0.079553
    15  H   -0.043516
    16  H   -0.067005
    17  H    0.028858
    18  H   -0.014303
 Sum of Mulliken charges =  -0.00000

 Dipole moment (field-independent basis, Debye):
    X=             -1.5078    Y=             -2.8186    Z=              0.0748  Tot=              3.1975

 Test job not archived.
 1\1\GINC-SE113\SP\RHF\Aug-CC-pVDZ\C5H12O1\OHZDE\09-Apr-2025\0\\#t hf a
 ug-cc-pvdz iop(5/13=1,5/36=2,99/5=2) pseudo=read geom=check guess=(rea
 d,tcheck) scf=(maxcycle=1)\\title\\0,1\C,0,-2.75391994,0.03997039,0.02
 326874\C,0,-1.2538457,-0.30515454,0.03825817\C,0,-0.45722059,0.6824988
 1,0.86010826\O,0,0.36080219,0.39999416,1.71835704\C,0,2.22747295,-0.14
 952368,-1.24596958\C,0,2.4217563,1.1494725,-0.98223958\H,0,-3.29979359
 ,-0.63972608,-0.64357028\H,0,-3.18842937,-0.04574548,1.02848513\H,0,-2
 .92018595,1.06709807,-0.33252216\H,0,-1.06884685,-1.31930444,0.4143300

 Normal termination of Gaussian 16 at Wed Apr  9 15:50:07 2025.
