 Gaussian 16, Revision C.01,

 ----------------------------------------------------------------------
 #t hf aug-cc-pvdz symm=none int=(grid=ultrafine) guess=(read,tcheck) s
 table=(opt,rrhf)
 ----------------------------------------------------------------------
 -----
 title
 -----
 Symbolic Z-matrix:
 Charge =  0 Multiplicity = 1

 SCF Done:  E(RHF) =  -321.439901003     A.U. after   18 cycles
 Normal termination of Gaussian 16 at Wed Apr  9 03:51:23 2025.
 Gaussian 16:  ES64L-G16RevC.01  3-Jul-2019

 ----------------------------------------------------------------------
 #t hf aug-cc-pvdz iop(5/13=1,5/36=2,99/5=2) pseudo=read geom=check gue
 ss=(read,tcheck) scf=(maxcycle=1)
 ----------------------------------------------------------------------
 -----
 title
 -----
 Structure from the checkpoint file:  "Grambow2020_wb97xd3_008182_reverse_mol2.chk"
 Charge =  0 Multiplicity = 1

                         Standard orientation:
 ---------------------------------------------------------------------
 Center     Atomic      Atomic             Coordinates (Angstroms)
 Number     Number       Type             X           Y           Z
 ---------------------------------------------------------------------
      1          8           0        2.386424   -0.086704   -0.041552
      2          6           0        1.220378   -0.816261    0.215108
      3          6           0       -0.046823   -0.025097   -0.010127
      4          6           0       -0.075179    1.331195   -0.096476
      5          6           0       -1.330164    1.953752   -0.003219
      6          6           0       -1.243367   -0.812547   -0.035577
      7          7           0       -2.113653   -1.562660   -0.072410
      8          1           0        2.499944    0.003641   -0.989888
      9          1           0        1.160394   -1.729925   -0.389242
     10          1           0        1.261222   -1.135708    1.259934
     11          1           0        0.882590    1.851825   -0.083761
     12          1           0       -1.249041    2.856177    0.623987
 ---------------------------------------------------------------------

 SCF Done:  E(RHF) =  -321.758563860     A.U. after    2 cycles

 The electronic state is 1-A.
 Alpha  occ. eigenvalues --  -20.58927 -15.52914 -11.33525 -11.33083 -11.29420
 Alpha  occ. eigenvalues --  -11.29045 -11.28530  -1.49751  -1.25132  -1.15204
 Alpha  occ. eigenvalues --   -1.02566  -0.91286  -0.84249  -0.74677  -0.70106
 Alpha  occ. eigenvalues --   -0.67219  -0.65297  -0.61545  -0.59276  -0.56574
 Alpha  occ. eigenvalues --   -0.53849  -0.52090  -0.48827  -0.44789  -0.36426
 Alpha virt. eigenvalues --   -0.00207   0.02565   0.03432   0.03886   0.05127
 Alpha virt. eigenvalues --    0.07116   0.07845   0.09221   0.09958   0.10707
 Alpha virt. eigenvalues --    0.11626   0.12967   0.13565   0.14379   0.14930

 Mulliken charges:
               1
     1  O   -1.153359
     2  C    1.133883
     3  C    0.956775
     4  C    0.723206
     5  C   -0.505061
     6  C   -2.866604
     7  N    1.154232
     8  H    0.277270
     9  H    0.206036
    10  H    0.210190
    11  H   -0.174730
    12  H    0.038161
 Sum of Mulliken charges =  -0.00000

 Dipole moment (field-independent basis, Debye):
    X=              4.9029    Y=              2.0339    Z=             -0.1965  Tot=              5.3117

 Test job not archived.
 1\1\GINC-SE127\SP\RHF\Aug-CC-pVDZ\C5H5N1O1\OHZDE\09-Apr-2025\0\\#t hf
 aug-cc-pvdz iop(5/13=1,5/36=2,99/5=2) pseudo=read geom=check guess=(re
 ad,tcheck) scf=(maxcycle=1)\\title\\0,1\O,0,-2.08757336,-0.01886096,-0
 .38990723\C,0,-1.04161272,-0.84893964,0.02809419\C,0,0.28205248,-0.131
 91325,0.15558683\C,0,0.53298962,1.07897012,-0.40884169\C,0,1.87358196,
 1.4911905,-0.47323857\C,0,1.29547231,-0.87187343,0.84687851\N,0,1.9978
 9409,-1.55376083,1.44941927\H,0,-2.35558914,0.54307976,0.34001108\H,0,
 -1.25586657,-1.33626779,0.98737795\H,0,-0.94558187,-1.6473781,-0.71261

 Normal termination of Gaussian 16 at Wed Apr  9 03:51:28 2025.
