 Gaussian 16, Revision C.01,

 ----------------------------------------------------------------------
 #t hf aug-cc-pvdz symm=none int=(grid=ultrafine) guess=(read,tcheck) s
 table=(opt,rrhf)
 ----------------------------------------------------------------------
 -----
 title
 -----
 Symbolic Z-matrix:
 Charge =  0 Multiplicity = 1

 SCF Done:  E(RHF) =  -320.252675233     A.U. after   19 cycles
 Normal termination of Gaussian 16 at Wed Apr  9 18:30:08 2025.
 Gaussian 16:  ES64L-G16RevC.01  3-Jul-2019

 ----------------------------------------------------------------------
 #t hf aug-cc-pvdz iop(5/13=1,5/36=2,99/5=2) pseudo=read geom=check gue
 ss=(read,tcheck) scf=(maxcycle=1)
 ----------------------------------------------------------------------
 -----
 title
 -----
 Structure from the checkpoint file:  "Grambow2020_wb97xd3_007652_forward_mol1.chk"
 Charge =  0 Multiplicity = 1

                         Standard orientation:
 ---------------------------------------------------------------------
 Center     Atomic      Atomic             Coordinates (Angstroms)
 Number     Number       Type             X           Y           Z
 ---------------------------------------------------------------------
      1          7           0       -2.752211   -0.224499   -0.209509
      2          6           0       -1.616954   -0.108555   -0.053687
      3          6           0       -0.220576    0.044272    0.155512
      4          6           0        0.620400   -1.133909    0.149630
      5          8           0        1.813157   -1.166356   -0.070237
      6          6           0        1.371968    1.464666   -0.378108
      7          6           0        0.292314    1.375134    0.351701
      8          1           0        0.071547   -2.055599    0.411431
      9          1           0        2.303485    0.931614   -0.516630
     10          1           0       -0.297724    2.176678    0.783369
 ---------------------------------------------------------------------

 SCF Done:  E(RHF) =  -320.564018352     A.U. after    2 cycles

 The electronic state is 1-A.
 Alpha  occ. eigenvalues --  -20.55534 -15.51878 -11.36546 -11.35945 -11.34933
 Alpha  occ. eigenvalues --  -11.30479 -11.29036  -1.49115  -1.24426  -1.18262
 Alpha  occ. eigenvalues --   -1.03648  -0.88338  -0.82482  -0.76819  -0.70800
 Alpha  occ. eigenvalues --   -0.67725  -0.65731  -0.61249  -0.57993  -0.53375
 Alpha  occ. eigenvalues --   -0.51667  -0.49150  -0.44644  -0.35016
 Alpha virt. eigenvalues --   -0.02070   0.02713   0.04183   0.04445   0.05544
 Alpha virt. eigenvalues --    0.07120   0.08324   0.09184   0.09823   0.10620
 Alpha virt. eigenvalues --    0.12280   0.12795   0.13850   0.14196   0.14915

 Mulliken charges:
               1
     1  N    0.987390
     2  C   -2.516172
     3  C    1.281607
     4  C    1.002694
     5  O   -1.289584
     6  C   -0.338018
     7  C    0.753652
     8  H    0.098522
     9  H    0.037720
    10  H   -0.017812
 Sum of Mulliken charges =  -0.00000

 Dipole moment (field-independent basis, Debye):
    X=              3.6903    Y=              2.8868    Z=              1.4283  Tot=              4.8981

 Test job not archived.
 1\1\GINC-SE115\SP\RHF\Aug-CC-pVDZ\C5H3N1O1\OHZDE\09-Apr-2025\0\\#t hf
 aug-cc-pvdz iop(5/13=1,5/36=2,99/5=2) pseudo=read geom=check guess=(re
 ad,tcheck) scf=(maxcycle=1)\\title\\0,1\N,0,2.79122338,-0.16610402,-0.
 97899894\C,0,1.72708937,-0.08653066,-0.54561893\C,0,0.41995071,-0.0013
 9808,0.00313852\C,0,-0.11074286,1.30082202,0.3466082\O,0,-1.28287347,1
 .59623773,0.4510243\C,0,-1.53159568,-0.98460166,-0.24834631\C,0,-0.320
 62161,-1.22340072,0.17921447\H,0,0.67759227,2.04527971,0.55542228\H,0,
 -2.32454118,-0.26787611,-0.07923591\H,0,0.15655308,-2.18243722,0.35099

 Normal termination of Gaussian 16 at Wed Apr  9 18:30:12 2025.
