 Gaussian 16, Revision C.01,

 ----------------------------------------------------------------------
 #t hf aug-cc-pvdz symm=none int=(grid=ultrafine) guess=(read,tcheck) s
 table=(opt,rrhf)
 ----------------------------------------------------------------------
 -----
 title
 -----
 Symbolic Z-matrix:
 Charge =  0 Multiplicity = 1

 SCF Done:  E(RHF) =  -302.908416578     A.U. after   14 cycles
 Normal termination of Gaussian 16 at Wed Apr  9 18:11:18 2025.
 Gaussian 16:  ES64L-G16RevC.01  3-Jul-2019

 ----------------------------------------------------------------------
 #t hf aug-cc-pvdz iop(5/13=1,5/36=2,99/5=2) pseudo=read geom=check gue
 ss=(read,tcheck) scf=(maxcycle=1)
 ----------------------------------------------------------------------
 -----
 title
 -----
 Structure from the checkpoint file:  "Grambow2020_wb97xd3_007166_reverse_mol2.chk"
 Charge =  0 Multiplicity = 1

                         Standard orientation:
 ---------------------------------------------------------------------
 Center     Atomic      Atomic             Coordinates (Angstroms)
 Number     Number       Type             X           Y           Z
 ---------------------------------------------------------------------
      1          6           0       -1.994651   -1.069459    0.140696
      2          6           0       -0.699781   -0.282055    0.273597
      3          6           0        0.480973   -1.098147   -0.274924
      4          7           0       -0.799628    0.940218   -0.501334
      5          6           0       -0.569295    2.030858    0.080805
      6          6           0        1.761148   -0.438266   -0.035607
      7          7           0        2.753078    0.096666    0.177939
      8          1           0       -2.196583   -1.293336   -0.908166
      9          1           0       -2.830705   -0.486715    0.527846
     10          1           0       -1.940845   -2.005426    0.699752
     11          1           0       -0.505927   -0.067101    1.335186
     12          1           0        0.353491   -1.239873   -1.350316
     13          1           0        0.508211   -2.083033    0.195684
     14          1           0       -0.625372    2.957244   -0.486793
     15          1           0       -0.306784    2.102469    1.143166
 ---------------------------------------------------------------------

 SCF Done:  E(RHF) =  -303.221678948     A.U. after    2 cycles

 The electronic state is 1-A.
 Alpha  occ. eigenvalues --  -15.51449 -15.50756 -11.29569 -11.29253 -11.28885
 Alpha  occ. eigenvalues --  -11.27697 -11.24326  -1.26044  -1.23250  -1.09847
 Alpha  occ. eigenvalues --   -0.99727  -0.89748  -0.80670  -0.72629  -0.71238
 Alpha  occ. eigenvalues --   -0.66546  -0.63705  -0.61120  -0.60370  -0.56743
 Alpha  occ. eigenvalues --   -0.55598  -0.52596  -0.49415  -0.49270  -0.46166
 Alpha  occ. eigenvalues --   -0.45600
 Alpha virt. eigenvalues --    0.03256   0.03798   0.04012   0.04390   0.05182
 Alpha virt. eigenvalues --    0.06354   0.06711   0.07451   0.07876   0.10518
 Alpha virt. eigenvalues --    0.12001   0.12907   0.13390   0.13710   0.14026

 Mulliken charges:
               1
     1  C   -0.172323
     2  C   -1.188895
     3  C    0.407640
     4  N    0.693557
     5  C   -0.272615
     6  C   -1.649377
     7  N    0.976504
     8  H    0.224832
     9  H    0.152748
    10  H    0.173956
    11  H    0.063481
    12  H    0.240602
    13  H    0.242993
    14  H    0.023927
    15  H    0.082970
 Sum of Mulliken charges =  -0.00000

 Dipole moment (field-independent basis, Debye):
    X=             -3.9274    Y=             -1.1598    Z=              1.0700  Tot=              4.2325

 Test job not archived.
 1\1\GINC-SE174\SP\RHF\Aug-CC-pVDZ\C5H8N2\OHZDE\09-Apr-2025\0\\#t hf au
 g-cc-pvdz iop(5/13=1,5/36=2,99/5=2) pseudo=read geom=check guess=(read
 ,tcheck) scf=(maxcycle=1)\\title\\0,1\C,0,-1.52931104,-0.67239397,0.73
 491582\C,0,-0.18771475,-0.33673071,0.10103433\C,0,-0.38198024,0.615621
 96,-1.08907036\N,0,0.65124843,0.33077116,1.07828533\C,0,1.79464192,-0.
 1436468,1.29967496\C,0,0.86411946,0.84869667,-1.81327702\N,0,1.8547494
 8,1.00276132,-2.37058734\H,0,-2.01255698,0.23433286,1.10278728\H,0,-1.
 3878553,-1.34563994,1.58060553\H,0,-2.18947979,-1.15978192,0.01512174\

 Normal termination of Gaussian 16 at Wed Apr  9 18:11:23 2025.
