 Gaussian 16, Revision C.01,

 ----------------------------------------------------------------------
 #t hf aug-cc-pvdz symm=none int=(grid=ultrafine) guess=(read,tcheck) s
 table=(opt,rrhf)
 ----------------------------------------------------------------------
 -----
 title
 -----
 Symbolic Z-matrix:
 Charge =  0 Multiplicity = 1

 SCF Done:  E(RHF) =  -306.510423532     A.U. after   15 cycles
 Normal termination of Gaussian 16 at Wed Apr  9 18:21:48 2025.
 Gaussian 16:  ES64L-G16RevC.01  3-Jul-2019

 ----------------------------------------------------------------------
 #t hf aug-cc-pvdz iop(5/13=1,5/36=2,99/5=2) pseudo=read geom=check gue
 ss=(read,tcheck) scf=(maxcycle=1)
 ----------------------------------------------------------------------
 -----
 title
 -----
 Structure from the checkpoint file:  "Grambow2020_wb97xd3_007360_forward_mol1.chk"
 Charge =  0 Multiplicity = 1

                         Standard orientation:
 ---------------------------------------------------------------------
 Center     Atomic      Atomic             Coordinates (Angstroms)
 Number     Number       Type             X           Y           Z
 ---------------------------------------------------------------------
      1          6           0        1.654088   -0.633027   -0.709162
      2          6           0        2.053759    0.099263    0.555202
      3          6           0        0.675112    0.187179    0.025537
      4          6           0       -0.277660    1.242065   -0.330264
      5          6           0       -2.192692    0.124299   -0.353913
      6          8           0       -1.481875   -1.022468    0.057559
      7          6           0       -0.629583   -0.102571    0.614925
      8          1           0        2.021776   -0.252445   -1.653280
      9          1           0        1.544294   -1.708380   -0.660069
     10          1           0        2.220103   -0.489660    1.448477
     11          1           0        2.688594    0.970683    0.458024
     12          1           0       -0.293383    2.149328    0.260342
     13          1           0       -0.553656    1.350476   -1.365486
     14          1           0       -2.668359    0.520994    0.577322
     15          1           0       -0.802518    0.135498    1.660248
 ---------------------------------------------------------------------

 SCF Done:  E(RHF) =  -306.825960697     A.U. after    2 cycles

 The electronic state is 1-A.
 Alpha  occ. eigenvalues --  -20.57479 -11.33413 -11.30332 -11.27565 -11.26325
 Alpha  occ. eigenvalues --  -11.25391 -11.25102  -1.52039  -1.19657  -1.07824
 Alpha  occ. eigenvalues --   -0.88525  -0.85252  -0.83663  -0.77056  -0.71262
 Alpha  occ. eigenvalues --   -0.68350  -0.67513  -0.60868  -0.58831  -0.55935
 Alpha  occ. eigenvalues --   -0.53820  -0.49667  -0.45124  -0.44826  -0.39996
 Alpha  occ. eigenvalues --   -0.34266
 Alpha virt. eigenvalues --    0.03111   0.03462   0.03778   0.04646   0.05846
 Alpha virt. eigenvalues --    0.06266   0.06569   0.07709   0.10092   0.10489
 Alpha virt. eigenvalues --    0.12103   0.12629   0.12848   0.13349   0.13892

 Mulliken charges:
               1
     1  C   -0.000554
     2  C    0.224015
     3  C    0.788040
     4  C   -0.335642
     5  C   -0.035698
     6  O   -1.409579
     7  C    0.802662
     8  H   -0.056738
     9  H   -0.047910
    10  H   -0.051460
    11  H   -0.040170
    12  H   -0.056980
    13  H    0.047752
    14  H    0.186969
    15  H   -0.014708
 Sum of Mulliken charges =   0.00000

 Dipole moment (field-independent basis, Debye):
    X=              2.6661    Y=              1.4497    Z=              1.8310  Tot=              3.5444

 Test job not archived.
 1\1\GINC-SE220\SP\RHF\Aug-CC-pVDZ\C6H8O1\OHZDE\09-Apr-2025\0\\#t hf au
 g-cc-pvdz iop(5/13=1,5/36=2,99/5=2) pseudo=read geom=check guess=(read
 ,tcheck) scf=(maxcycle=1)\\title\\0,1\C,0,-1.48968154,0.28778184,-0.91
 599614\C,0,-1.77961431,0.06801973,0.55446183\C,0,-0.40679027,-0.064473
 67,0.01897968\C,0,0.66792328,-1.06026001,0.04249854\C,0,2.42566839,0.1
 6674543,-0.52503596\O,0,1.57992383,1.29540447,-0.54720385\C,0,0.857077
 45,0.57710658,0.37193198\H,0,-1.81650725,-0.47018701,-1.61604209\H,0,-
 1.51637831,1.30173141,-1.29288124\H,0,-2.00942081,0.9364819,1.1589475\

 Normal termination of Gaussian 16 at Wed Apr  9 18:21:53 2025.
