 Gaussian 16, Revision C.01,

 ----------------------------------------------------------------------
 #t hf aug-cc-pvdz symm=none int=(grid=ultrafine) guess=(read,tcheck) s
 table=(opt,rrhf)
 ----------------------------------------------------------------------
 -----
 title
 -----
 Symbolic Z-matrix:
 Charge =  0 Multiplicity = 1

 SCF Done:  E(RHF) =  -308.804012637     A.U. after   16 cycles

 1\1\GINC-SE115\Stability\RHF\Aug-CC-pVDZ\C6H12O1\OHZDE\09-Apr-2025\0\\
 #t hf aug-cc-pvdz symm=none int=(grid=ultrafine) guess=(read,tcheck) s
 table=(opt,rrhf)\\title\\0,1\C,0,2.43860984,-0.49466538,-0.35203716\O,
 0,1.07425716,-0.81944524,-0.26655332\C,0,0.40116746,-0.05142948,0.6865
 2258\C,0,0.10029129,1.40667042,0.29617982\C,0,-1.11536466,1.00795831,-
 0.3147353\C,0,-1.17752899,-0.28973175,0.48160153\C,0,-1.63264281,-1.58
 785378,-0.14748657\H,0,2.94164763,-0.62506884,0.61500563\H,0,2.5765007
 5,0.54235421,-0.68163477\H,0,2.8882061,-1.16812819,-1.08021715\H,0,0.8

 Normal termination of Gaussian 16 at Wed Apr  9 18:58:18 2025.
 Gaussian 16:  ES64L-G16RevC.01  3-Jul-2019

 ----------------------------------------------------------------------
 #t hf aug-cc-pvdz iop(5/13=1,5/36=2,99/5=2) pseudo=read geom=check gue
 ss=(read,tcheck) scf=(maxcycle=1)
 ----------------------------------------------------------------------
 -----
 title
 -----
 Structure from the checkpoint file:  "Grambow2020_wb97xd3_008395_forward_mol1.chk"
 Charge =  0 Multiplicity = 1

                         Standard orientation:
 ---------------------------------------------------------------------
 Center     Atomic      Atomic             Coordinates (Angstroms)
 Number     Number       Type             X           Y           Z
 ---------------------------------------------------------------------
      1          6           0        2.417344   -0.356943   -0.220454
      2          8           0        1.057051   -0.707831   -0.193456
      3          6           0        0.315434    0.095610    0.675877
      4          6           0        0.008497    1.522809    0.188187
      5          6           0       -1.162070    1.063353   -0.466552
      6          6           0       -1.243914   -0.189805    0.396531
      7          6           0       -1.636442   -1.530589   -0.183315
      8          1           0        2.866730   -0.422524    0.779033
      9          1           0        2.553251    0.663340   -0.599414
     10          1           0        2.921135   -1.058805   -0.883416
     11          1           0        0.668967   -0.036961    1.708747
     12          1           0       -0.029628    2.294764    0.945171
     13          1           0       -0.156794    2.647553   -0.761538
     14          1           0       -1.255343    0.977788   -1.540191
     15          1           0       -1.230195    2.592214   -0.791617
     16          1           0       -1.769341    0.005602    1.333456
     17          1           0       -2.709911   -1.558087   -0.383472
     18          1           0       -1.102714   -1.728340   -1.112690
     19          1           0       -1.405659   -2.340502    0.511945
 ---------------------------------------------------------------------

 SCF Done:  E(RHF) =  -309.135230200     A.U. after    2 cycles

 The electronic state is 1-A.
 Alpha  occ. eigenvalues --  -20.54972 -11.29820 -11.28194 -11.26847 -11.25436
 Alpha  occ. eigenvalues --  -11.24922 -11.22241  -1.47695  -1.16146  -1.00155
 Alpha  occ. eigenvalues --   -0.95386  -0.88073  -0.84683  -0.75214  -0.71192
 Alpha  occ. eigenvalues --   -0.65674  -0.65036  -0.61806  -0.60667  -0.56940
 Alpha  occ. eigenvalues --   -0.55650  -0.53884  -0.50462  -0.49564  -0.44662
 Alpha  occ. eigenvalues --   -0.43087  -0.38099  -0.34932
 Alpha virt. eigenvalues --    0.03268   0.03628   0.03919   0.04208   0.05661
 Alpha virt. eigenvalues --    0.05875   0.06159   0.06441   0.06952   0.08183
 Alpha virt. eigenvalues --    0.09007   0.09975   0.10223   0.12391   0.13117

 Mulliken charges:
               1
     1  C    0.081250
     2  O   -1.560444
     3  C    1.244651
     4  C   -0.189164
     5  C    0.188481
     6  C   -0.686467
     7  C   -0.290273
     8  H    0.178318
     9  H    0.207814
    10  H   -0.023621
    11  H    0.069920
    12  H   -0.067864
    13  H    0.254426
    14  H   -0.201319
    15  H    0.187405
    16  H    0.013981
    17  H    0.171346
    18  H    0.218861
    19  H    0.202700
 Sum of Mulliken charges =  -0.00000

 Dipole moment (field-independent basis, Debye):
    X=              0.5670    Y=             -0.6596    Z=              1.1168  Tot=              1.4155

 Test job not archived.
 1\1\GINC-SE115\SP\RHF\Aug-CC-pVDZ\C6H12O1\OHZDE\09-Apr-2025\0\\#t hf a
 ug-cc-pvdz iop(5/13=1,5/36=2,99/5=2) pseudo=read geom=check guess=(rea
 d,tcheck) scf=(maxcycle=1)\\title\\0,1\C,0,2.43860984,-0.49466538,-0.3
 5203716\O,0,1.07425716,-0.81944524,-0.26655332\C,0,0.40116746,-0.05142
 948,0.68652258\C,0,0.10029129,1.40667042,0.29617982\C,0,-1.11536466,1.
 00795831,-0.3147353\C,0,-1.17752899,-0.28973175,0.48160153\C,0,-1.6326
 4281,-1.58785378,-0.14748657\H,0,2.94164763,-0.62506884,0.61500563\H,0
 ,2.57650075,0.54235421,-0.68163477\H,0,2.8882061,-1.16812819,-1.080217

 Normal termination of Gaussian 16 at Wed Apr  9 18:58:26 2025.
