 Gaussian 16, Revision C.01,

 ----------------------------------------------------------------------
 #t hf aug-cc-pvdz symm=none int=(grid=ultrafine) guess=(read,tcheck) s
 table=(opt,rrhf)
 ----------------------------------------------------------------------
 -----
 title
 -----
 Symbolic Z-matrix:
 Charge =  0 Multiplicity = 1

 SCF Done:  E(RHF) =  -360.790515016     A.U. after   15 cycles
 Normal termination of Gaussian 16 at Wed Apr  9 03:58:50 2025.
 Gaussian 16:  ES64L-G16RevC.01  3-Jul-2019

 ----------------------------------------------------------------------
 #t hf aug-cc-pvdz iop(5/13=1,5/36=2,99/5=2) pseudo=read geom=check gue
 ss=(read,tcheck) scf=(maxcycle=1)
 ----------------------------------------------------------------------
 -----
 title
 -----
 Structure from the checkpoint file:  "Grambow2020_wb97xd3_008682_forward_mol1.chk"
 Charge =  0 Multiplicity = 1

                         Standard orientation:
 ---------------------------------------------------------------------
 Center     Atomic      Atomic             Coordinates (Angstroms)
 Number     Number       Type             X           Y           Z
 ---------------------------------------------------------------------
      1          6           0        2.370885   -0.144588   -0.798793
      2          7           0        1.979497    0.050781    0.437339
      3          6           0        0.816423   -0.583722    0.873223
      4          6           0       -0.316845    0.180749   -0.188263
      5          8           0       -0.517887    1.371351    0.091500
      6          8           0       -1.390234   -0.703626   -0.299982
      7          6           0       -2.664800   -0.134593   -0.069878
      8          1           0        3.023214    0.578024   -1.267096
      9          1           0        0.409024   -0.023836   -1.114120
     10          1           0        2.257105   -1.128069   -1.230896
     11          1           0        2.127559    0.975819    0.817438
     12          1           0        0.563931   -0.364156    1.905541
     13          1           0        0.798788   -1.643523    0.636097
     14          1           0       -2.886505    0.650297   -0.795742
     15          1           0       -2.736189    0.298550    0.930476
     16          1           0       -3.382414   -0.947451   -0.172956
 ---------------------------------------------------------------------

 SCF Done:  E(RHF) =  -361.164340434     A.U. after    2 cycles

 The electronic state is 1-A.
 Alpha  occ. eigenvalues --  -20.52195 -20.43796 -15.61384 -11.36277 -11.33235
 Alpha  occ. eigenvalues --  -11.27176 -11.25059  -1.46573  -1.36474  -1.33622
 Alpha  occ. eigenvalues --   -1.03165  -0.94936  -0.90842  -0.79811  -0.77726
 Alpha  occ. eigenvalues --   -0.72329  -0.68779  -0.63704  -0.63395  -0.60745
 Alpha  occ. eigenvalues --   -0.58320  -0.57609  -0.53355  -0.49576  -0.46474
 Alpha  occ. eigenvalues --   -0.40721  -0.36349  -0.30902
 Alpha virt. eigenvalues --    0.01763   0.03053   0.03944   0.04402   0.05371
 Alpha virt. eigenvalues --    0.05996   0.06088   0.07093   0.07662   0.08498
 Alpha virt. eigenvalues --    0.10990   0.12131   0.13205   0.13439   0.13941

 Mulliken charges:
               1
     1  C   -0.307600
     2  N    0.758947
     3  C   -0.713621
     4  C    1.859374
     5  O   -1.389724
     6  O   -1.315599
     7  C    0.124943
     8  H   -0.020060
     9  H    0.182752
    10  H    0.074293
    11  H    0.332681
    12  H    0.060914
    13  H    0.098571
    14  H    0.142660
    15  H    0.148714
    16  H   -0.037244
 Sum of Mulliken charges =   0.00000

 Dipole moment (field-independent basis, Debye):
    X=              5.4573    Y=             -2.0449    Z=             -0.2364  Tot=              5.8326

 Test job not archived.
 1\1\GINC-SE253\SP\RHF\Aug-CC-pVDZ\C4H9N1O2\OHZDE\09-Apr-2025\0\\#t hf
 aug-cc-pvdz iop(5/13=1,5/36=2,99/5=2) pseudo=read geom=check guess=(re
 ad,tcheck) scf=(maxcycle=1)\\title\\0,1\C,0,-2.32887143,0.70934127,0.3
 8593631\N,0,-1.87840944,-0.514634,0.52137719\C,0,-0.59292234,-0.695960
 63,1.03125368\C,0,0.30425122,0.08256264,-0.2274943\O,0,0.32111524,-0.5
 6502901,-1.28416766\O,0,1.50023765,0.49833638,0.3586051\C,0,2.6733882,
 0.12235753,-0.33682589\H,0,-3.13041288,0.90333984,-0.31185104\H,0,-0.4
 4816545,1.00921095,-0.19365988\H,0,-2.08414194,1.44015965,1.14284061\H

 Normal termination of Gaussian 16 at Wed Apr  9 03:58:55 2025.
