 Gaussian 16, Revision C.01,

 ----------------------------------------------------------------------
 #t hf aug-cc-pvdz symm=none int=(grid=ultrafine) guess=(read,tcheck) s
 table=(opt,rrhf)
 ----------------------------------------------------------------------
 -----
 title
 -----
 Symbolic Z-matrix:
 Charge =  0 Multiplicity = 1

 SCF Done:  E(RHF) =  -354.652216206     A.U. after   15 cycles
 Normal termination of Gaussian 16 at Wed Apr  9 03:40:12 2025.
 Gaussian 16:  ES64L-G16RevC.01  3-Jul-2019

 ----------------------------------------------------------------------
 #t hf aug-cc-pvdz iop(5/13=1,5/36=2,99/5=2) pseudo=read geom=check gue
 ss=(read,tcheck) scf=(maxcycle=1)
 ----------------------------------------------------------------------
 -----
 title
 -----
 Structure from the checkpoint file:  "Grambow2020_wb97xd3_007469_reverse_mol1.chk"
 Charge =  0 Multiplicity = 1

                         Standard orientation:
 ---------------------------------------------------------------------
 Center     Atomic      Atomic             Coordinates (Angstroms)
 Number     Number       Type             X           Y           Z
 ---------------------------------------------------------------------
      1          7           0        2.256810   -0.084403   -0.336251
      2          6           0        0.982048    0.002981    0.109516
      3          6           0        0.120266    1.065362   -0.269431
      4          7           0       -1.124937    1.066152    0.500747
      5          6           0       -1.234754   -0.125598   -0.088096
      6          8           0       -1.873869   -0.879612   -0.714227
      7          7           0        0.354680   -0.891812    0.844066
      8          1           0        2.722651   -0.972840   -0.324890
      9          1           0        2.587614    0.594110   -0.997280
     10          1           0        0.330203    1.888527   -0.931624
     11          1           0       -1.026265    1.055525    1.513671
     12          1           0        0.765520   -1.814450    0.882072
 ---------------------------------------------------------------------

 SCF Done:  E(RHF) =  -355.012905653     A.U. after    2 cycles

 The electronic state is 1-A.
 Alpha  occ. eigenvalues --  -20.56644 -15.55565 -15.54267 -15.47259 -11.44093
 Alpha  occ. eigenvalues --  -11.34540 -11.25087  -1.52404  -1.33426  -1.26825
 Alpha  occ. eigenvalues --   -1.16254  -0.97336  -0.85516  -0.82447  -0.78577
 Alpha  occ. eigenvalues --   -0.77058  -0.70965  -0.66776  -0.65303  -0.60868
 Alpha  occ. eigenvalues --   -0.59221  -0.54824  -0.50213  -0.47753  -0.43179
 Alpha  occ. eigenvalues --   -0.32415
 Alpha virt. eigenvalues --    0.02334   0.04285   0.04488   0.05519   0.06797
 Alpha virt. eigenvalues --    0.08753   0.10136   0.10661   0.11010   0.12250
 Alpha virt. eigenvalues --    0.12892   0.13857   0.14202   0.14458   0.16081

 Mulliken charges:
               1
     1  N    0.692395
     2  C   -1.541097
     3  C   -0.345516
     4  N    0.600591
     5  C    0.872909
     6  O   -1.120743
     7  N    0.505112
     8  H    0.052405
     9  H    0.122893
    10  H   -0.248425
    11  H    0.422335
    12  H   -0.012860
 Sum of Mulliken charges =   0.00000

 Dipole moment (field-independent basis, Debye):
    X=              3.9401    Y=              0.6414    Z=             -0.2938  Tot=              4.0027

 Test job not archived.
 1\1\GINC-SE452\SP\RHF\Aug-CC-pVDZ\C3H5N3O1\OHZDE\09-Apr-2025\0\\#t hf
 aug-cc-pvdz iop(5/13=1,5/36=2,99/5=2) pseudo=read geom=check guess=(re
 ad,tcheck) scf=(maxcycle=1)\\title\\0,1\N,0,1.88100039,-0.02238487,-0.
 17062109\C,0,0.56550533,-0.05939052,0.14475787\C,0,-0.3180932,1.004855
 12,-0.17392406\N,0,-1.63095927,0.83717759,0.45215308\C,0,-1.60889246,-
 0.26180523,-0.30336918\O,0,-2.13566772,-0.94744089,-1.09169404\N,0,-0.
 07533822,-1.07846173,0.67825749\H,0,2.39698212,-0.88054513,-0.23211248
 \H,0,2.23327585,0.75848929,-0.69302815\H,0,-0.09461141,1.92324899,-0.6

 Normal termination of Gaussian 16 at Wed Apr  9 03:40:16 2025.
