 Gaussian 16, Revision C.01,

 ----------------------------------------------------------------------
 #t hf aug-cc-pvdz symm=none int=(grid=ultrafine) guess=(read,tcheck) s
 table=(opt,rrhf)
 ----------------------------------------------------------------------
 -----
 title
 -----
 Symbolic Z-matrix:
 Charge =  0 Multiplicity = 1

 SCF Done:  E(RHF) =  -306.582339299     A.U. after   15 cycles
 Normal termination of Gaussian 16 at Wed Apr  9 19:00:53 2025.
 Gaussian 16:  ES64L-G16RevC.01  3-Jul-2019

 ----------------------------------------------------------------------
 #t hf aug-cc-pvdz iop(5/13=1,5/36=2,99/5=2) pseudo=read geom=check gue
 ss=(read,tcheck) scf=(maxcycle=1)
 ----------------------------------------------------------------------
 -----
 title
 -----
 Structure from the checkpoint file:  "Grambow2020_wb97xd3_008440_reverse_mol1.chk"
 Charge =  0 Multiplicity = 1

                         Standard orientation:
 ---------------------------------------------------------------------
 Center     Atomic      Atomic             Coordinates (Angstroms)
 Number     Number       Type             X           Y           Z
 ---------------------------------------------------------------------
      1          6           0       -0.908310    1.007753   -0.595849
      2          6           0       -1.357740   -0.421502   -0.318074
      3          6           0       -0.086320   -1.169650    0.099246
      4          8           0        1.083531   -0.797553   -0.586156
      5          6           0        1.451347    0.480009   -0.060879
      6          6           0        0.150726    0.991748    0.530926
      7          6           0       -0.358100   -0.289389    1.278295
      8          1           0       -0.509115    1.181484   -1.597725
      9          1           0       -1.703662    1.726786   -0.403329
     10          1           0       -2.153514   -0.955091   -0.831258
     11          1           0       -0.164509   -2.247329    0.192371
     12          1           0        1.824417    1.103229   -0.875752
     13          1           0        2.240611    0.364719    0.692141
     14          1           0        0.239885    1.892044    1.133160
     15          1           0       -1.791979   -0.279234    0.777648
 ---------------------------------------------------------------------

 SCF Done:  E(RHF) =  -306.900472994     A.U. after    2 cycles

 The electronic state is 1-A.
 Alpha  occ. eigenvalues --  -20.55009 -11.29373 -11.28894 -11.27231 -11.26487
 Alpha  occ. eigenvalues --  -11.25238 -11.24809  -1.48036  -1.18759  -1.03442
 Alpha  occ. eigenvalues --   -0.95409  -0.87470  -0.79398  -0.75395  -0.71987
 Alpha  occ. eigenvalues --   -0.67315  -0.62277  -0.58256  -0.57727  -0.56032
 Alpha  occ. eigenvalues --   -0.53456  -0.50434  -0.49626  -0.47383  -0.40901
 Alpha  occ. eigenvalues --   -0.34075
 Alpha virt. eigenvalues --    0.03184   0.03375   0.04067   0.04310   0.05833
 Alpha virt. eigenvalues --    0.06248   0.06529   0.07591   0.09945   0.10761
 Alpha virt. eigenvalues --    0.11819   0.12919   0.13463   0.13736   0.14513

 Mulliken charges:
               1
     1  C    0.063666
     2  C   -0.400741
     3  C    1.461800
     4  O   -1.521395
     5  C    0.600127
     6  C   -0.205974
     7  C   -0.564577
     8  H    0.026488
     9  H    0.062998
    10  H   -0.061520
    11  H   -0.065943
    12  H    0.069677
    13  H    0.033218
    14  H   -0.033082
    15  H    0.535259
 Sum of Mulliken charges =  -0.00000

 Dipole moment (field-independent basis, Debye):
    X=             -1.0312    Y=              1.4028    Z=             -1.4614  Tot=              2.2731

 Test job not archived.
 1\1\GINC-SE028\SP\RHF\Aug-CC-pVDZ\C6H8O1\OHZDE\09-Apr-2025\0\\#t hf au
 g-cc-pvdz iop(5/13=1,5/36=2,99/5=2) pseudo=read geom=check guess=(read
 ,tcheck) scf=(maxcycle=1)\\title\\0,1\C,0,0.69935934,1.06789648,0.0716
 3348\C,0,1.35017594,-0.2769362,-0.22799484\C,0,0.26193281,-1.32123533,
 0.04688005\O,0,-0.57713173,-1.04289792,1.14016913\C,0,-1.44600409,0.00
 565721,0.70547197\C,0,-0.68401689,0.61985563,-0.45464076\C,0,-0.212068
 5,-0.66866718,-1.2134208\H,0,0.71538821,1.36655292,1.12227274\H,0,1.12
 912076,1.86838158,-0.52935409\H,0,2.3949339,-0.5330405,-0.07235784\H,0

 Normal termination of Gaussian 16 at Wed Apr  9 19:00:59 2025.
