 Gaussian 16, Revision C.01,

 ----------------------------------------------------------------------
 #t hf aug-cc-pvdz symm=none int=(grid=ultrafine) guess=(read,tcheck) s
 table=(opt,rrhf)
 ----------------------------------------------------------------------
 -----
 title
 -----
 Symbolic Z-matrix:
 Charge =  0 Multiplicity = 1

 SCF Done:  E(RHF) =  -301.700954186     A.U. after   14 cycles
 Normal termination of Gaussian 16 at Wed Apr  9 18:38:26 2025.
 Gaussian 16:  ES64L-G16RevC.01  3-Jul-2019

 ----------------------------------------------------------------------
 #t hf aug-cc-pvdz iop(5/13=1,5/36=2,99/5=2) pseudo=read geom=check gue
 ss=(read,tcheck) scf=(maxcycle=1)
 ----------------------------------------------------------------------
 -----
 title
 -----
 Structure from the checkpoint file:  "Grambow2020_wb97xd3_007927_forward_mol2.chk"
 Charge =  0 Multiplicity = 1

                         Standard orientation:
 ---------------------------------------------------------------------
 Center     Atomic      Atomic             Coordinates (Angstroms)
 Number     Number       Type             X           Y           Z
 ---------------------------------------------------------------------
      1          6           0       -1.609281    0.793448    0.001105
      2          6           0       -1.662634   -0.775645    0.001275
      3          6           0       -0.151732   -0.676286   -0.002575
      4          7           0        1.035005   -1.215195    0.000048
      5          6           0        1.861187   -0.106737    0.001213
      6          6           0        1.159842    1.077197    0.000242
      7          7           0       -0.145383    0.661252   -0.003601
      8          1           0       -1.999837    1.276035    0.896720
      9          1           0       -2.006814    1.274771   -0.892099
     10          1           0       -2.105491   -1.214134    0.894319
     11          1           0       -2.111879   -1.216101   -0.887651
     12          1           0        2.934306   -0.219919    0.002943
     13          1           0        1.478068    2.105085    0.003082
 ---------------------------------------------------------------------

 SCF Done:  E(RHF) =  -302.014915739     A.U. after    2 cycles

 The electronic state is 1-A.
 Alpha  occ. eigenvalues --  -15.54098 -15.47645 -11.30969 -11.28840 -11.27189
 Alpha  occ. eigenvalues --  -11.26161 -11.24704  -1.36212  -1.20055  -1.08916
 Alpha  occ. eigenvalues --   -0.95576  -0.92156  -0.83596  -0.75224  -0.73107
 Alpha  occ. eigenvalues --   -0.70776  -0.62388  -0.59223  -0.58430  -0.56423
 Alpha  occ. eigenvalues --   -0.56397  -0.52882  -0.47031  -0.42114  -0.32496
 Alpha virt. eigenvalues --    0.03083   0.04128   0.04171   0.04454   0.05352
 Alpha virt. eigenvalues --    0.06180   0.07382   0.09835   0.10944   0.11889
 Alpha virt. eigenvalues --    0.12597   0.12944   0.13948   0.14512   0.15430

 Mulliken charges:
               1
     1  C   -0.030173
     2  C    0.135786
     3  C   -1.564481
     4  N    1.056106
     5  C   -0.390035
     6  C    0.254385
     7  N    0.645385
     8  H   -0.022292
     9  H   -0.023038
    10  H    0.127241
    11  H    0.125554
    12  H   -0.126936
    13  H   -0.187502
 Sum of Mulliken charges =  -0.00000

 Dipole moment (field-independent basis, Debye):
    X=             -3.2602    Y=              2.7714    Z=              0.0099  Tot=              4.2790

 Test job not archived.
 1\1\GINC-SE173\SP\RHF\Aug-CC-pVDZ\C5H6N2\OHZDE\09-Apr-2025\0\\#t hf au
 g-cc-pvdz iop(5/13=1,5/36=2,99/5=2) pseudo=read geom=check guess=(read
 ,tcheck) scf=(maxcycle=1)\\title\\0,1\C,0,-1.39461105,-0.56541591,0.00
 990419\C,0,-1.339271,0.99806945,0.14163337\C,0,0.15998445,0.80012215,0
 .06573597\N,0,1.38001013,1.25849493,0.05136835\C,0,2.12677921,0.102530
 2,-0.08030278\C,0,1.34587809,-1.02873271,-0.14374526\N,0,0.0738456,-0.
 53015065,-0.0438244\H,0,-1.85459902,-0.94311603,-0.90295171\H,0,-1.786
 90861,-1.09426817,0.87819864\H,0,-1.78757597,1.53929664,-0.69024268\H,

 Normal termination of Gaussian 16 at Wed Apr  9 18:38:30 2025.
