 Gaussian 16, Revision C.01,

 ----------------------------------------------------------------------
 #t hf aug-cc-pvdz symm=none int=(grid=ultrafine) guess=(read,tcheck) s
 table=(opt,rrhf)
 ----------------------------------------------------------------------
 -----
 title
 -----
 Symbolic Z-matrix:
 Charge =  0 Multiplicity = 1

 SCF Done:  E(RHF) =  -321.492924814     A.U. after   14 cycles
 Normal termination of Gaussian 16 at Wed Apr  9 18:53:31 2025.
 Gaussian 16:  ES64L-G16RevC.01  3-Jul-2019

 ----------------------------------------------------------------------
 #t hf aug-cc-pvdz iop(5/13=1,5/36=2,99/5=2) pseudo=read geom=check gue
 ss=(read,tcheck) scf=(maxcycle=1)
 ----------------------------------------------------------------------
 -----
 title
 -----
 Structure from the checkpoint file:  "Grambow2020_wb97xd3_008193_reverse_mol2.chk"
 Charge =  0 Multiplicity = 1

                         Standard orientation:
 ---------------------------------------------------------------------
 Center     Atomic      Atomic             Coordinates (Angstroms)
 Number     Number       Type             X           Y           Z
 ---------------------------------------------------------------------
      1          8           0        1.858642   -1.254388    0.086474
      2          6           0        0.515404   -1.213159   -0.297923
      3          6           0       -0.241049   -0.083491    0.433591
      4          6           0        0.345323    1.221903    0.116914
      5          6           0        0.877532    2.256805   -0.157850
      6          6           0       -2.739655   -0.225527   -0.223041
      7          7           0       -1.620917   -0.132942    0.085107
      8          1           0        2.300239   -0.465936   -0.240213
      9          1           0        0.388552   -1.076692   -1.377508
     10          1           0        0.066649   -2.164943   -0.013491
     11          1           0       -0.154712   -0.256502    1.509378
     12          1           0        1.331226    3.190596   -0.395863
 ---------------------------------------------------------------------

 SCF Done:  E(RHF) =  -321.813184957     A.U. after    2 cycles

 The electronic state is 1-A.
 Alpha  occ. eigenvalues --  -20.57283 -15.54654 -11.34978 -11.31907 -11.29423
 Alpha  occ. eigenvalues --  -11.27252 -11.26762  -1.48187  -1.29884  -1.12601
 Alpha  occ. eigenvalues --   -1.04076  -0.93333  -0.82530  -0.75612  -0.73912
 Alpha  occ. eigenvalues --   -0.70755  -0.64995  -0.62533  -0.56024  -0.53121
 Alpha  occ. eigenvalues --   -0.51963  -0.49395  -0.47474  -0.43994  -0.42590
 Alpha virt. eigenvalues --    0.02789   0.03948   0.04416   0.05074   0.05813
 Alpha virt. eigenvalues --    0.08886   0.09246   0.10045   0.10352   0.10388
 Alpha virt. eigenvalues --    0.11576   0.12020   0.12865   0.13740   0.14303

 Mulliken charges:
               1
     1  O   -1.120954
     2  C    1.176406
     3  C   -2.098336
     4  C    0.720163
     5  C    0.350124
     6  C   -0.486716
     7  N    1.097176
     8  H    0.331829
     9  H    0.181797
    10  H    0.090806
    11  H    0.179071
    12  H   -0.421365
 Sum of Mulliken charges =  -0.00000

 Dipole moment (field-independent basis, Debye):
    X=              2.5110    Y=              1.2072    Z=             -0.1422  Tot=              2.7898

 Test job not archived.
 1\1\GINC-SE104\SP\RHF\Aug-CC-pVDZ\C5H5N1O1\OHZDE\09-Apr-2025\0\\#t hf
 aug-cc-pvdz iop(5/13=1,5/36=2,99/5=2) pseudo=read geom=check guess=(re
 ad,tcheck) scf=(maxcycle=1)\\title\\0,1\O,0,-2.00772325,-0.082939,-0.3
 1566822\C,0,-0.95426608,-0.73914465,0.3272724\C,0,0.39645555,-0.427566
 58,-0.35239981\C,0,0.68110225,1.00938281,-0.30420818\C,0,0.85090437,2.
 19203568,-0.25663528\C,0,2.23081399,-1.83385177,0.81029689\N,0,1.42826
 769,-1.18413019,0.27281719\H,0,-1.91876617,0.86310555,-0.17257345\H,0,
 -0.87944111,-0.47944289,1.38895704\H,0,-1.13960632,-1.81010144,0.24435

 Normal termination of Gaussian 16 at Wed Apr  9 18:53:35 2025.
