 Gaussian 16, Revision C.01,

 ----------------------------------------------------------------------
 #t hf aug-cc-pvdz symm=none int=(grid=ultrafine) guess=(read,tcheck) s
 table=(opt,rrhf)
 ----------------------------------------------------------------------
 -----
 title
 -----
 Symbolic Z-matrix:
 Charge =  0 Multiplicity = 1

 SCF Done:  E(RHF) =  -269.857123187     A.U. after   17 cycles

 1\1\GINC-SE090\Stability\RHF\Aug-CC-pVDZ\C5H10O1\OHZDE\09-Apr-2025\0\\
 #t hf aug-cc-pvdz symm=none int=(grid=ultrafine) guess=(read,tcheck) s
 table=(opt,rrhf)\\title\\0,1\C,0,-2.1486475,0.33692932,-0.29632382\C,0
 ,-0.85835561,-0.32262619,0.0927096\C,0,0.17336359,0.43310807,0.8725556
 4\C,0,1.48397448,-0.32523226,0.70022331\C,0,1.84187136,-0.45070634,-0.
 74459333\O,0,1.38104166,0.27737121,-1.7843667\H,0,-2.69748989,-0.25114
 733,-1.04835899\H,0,-2.84582818,0.46845948,0.56154982\H,0,-1.98843633,
 1.34835317,-0.70873796\H,0,-0.91846709,-1.38989969,0.32990772\H,0,0.43

 Normal termination of Gaussian 16 at Wed Apr  9 03:09:47 2025.
 Gaussian 16:  ES64L-G16RevC.01  3-Jul-2019

 ----------------------------------------------------------------------
 #t hf aug-cc-pvdz iop(5/13=1,5/36=2,99/5=2) pseudo=read geom=check gue
 ss=(read,tcheck) scf=(maxcycle=1)
 ----------------------------------------------------------------------
 -----
 title
 -----
 Structure from the checkpoint file:  "Grambow2020_b97d3_006648_forward_mol1.chk"
 Charge =  0 Multiplicity = 1

                         Standard orientation:
 ---------------------------------------------------------------------
 Center     Atomic      Atomic             Coordinates (Angstroms)
 Number     Number       Type             X           Y           Z
 ---------------------------------------------------------------------
      1          6           0       -2.385613   -0.498717    0.020228
      2          6           0       -1.106425    0.152328    0.457301
      3          6           0       -0.309842    0.978537   -0.505286
      4          6           0        1.091302    1.093335    0.083012
      5          6           0        1.689525   -0.257433    0.304113
      6          8           0        1.319934   -1.433709   -0.246676
      7          1           0       -2.733191   -1.246854    0.749680
      8          1           0       -3.222456    0.225211   -0.101960
      9          1           0       -2.280992   -1.001932   -0.956788
     10          1           0       -1.078166    0.504961    1.493545
     11          1           0        0.335771   -1.373005   -0.308972
     12          1           0       -0.278442    0.507466   -1.503789
     13          1           0       -0.703922    2.004407   -0.680925
     14          1           0        0.990456    1.601720    1.059376
     15          1           0        1.786983    1.736819   -0.502964
     16          1           0        2.750798   -0.297421    0.569992
 ---------------------------------------------------------------------

 SCF Done:  E(RHF) =  -270.142803996     A.U. after    2 cycles

 The electronic state is 1-A.
 Alpha  occ. eigenvalues --  -20.63007 -11.41485 -11.27424 -11.22990 -11.20207
 Alpha  occ. eigenvalues --  -11.17727  -1.53605  -1.10020  -0.99593  -0.92627
 Alpha  occ. eigenvalues --   -0.84743  -0.75776  -0.72673  -0.69475  -0.63674
 Alpha  occ. eigenvalues --   -0.60578  -0.57549  -0.56206  -0.53837  -0.52475
 Alpha  occ. eigenvalues --   -0.50407  -0.47181  -0.45999  -0.21033
 Alpha virt. eigenvalues --    0.01830   0.02524   0.03747   0.04160   0.04857
 Alpha virt. eigenvalues --    0.05976   0.06440   0.06723   0.07234   0.09027
 Alpha virt. eigenvalues --    0.09965   0.11430   0.12277   0.13226   0.14306

 Mulliken charges:
               1
     1  C   -0.595893
     2  C   -0.084078
     3  C   -0.225897
     4  C   -0.257721
     5  C    0.908868
     6  O   -1.162676
     7  H    0.158689
     8  H    0.194329
     9  H    0.086659
    10  H   -0.280595
    11  H    0.585114
    12  H    0.082038
    13  H    0.106910
    14  H    0.311993
    15  H    0.150149
    16  H    0.022111
 Sum of Mulliken charges =  -0.00000

 Dipole moment (field-independent basis, Debye):
    X=              3.7865    Y=              0.9314    Z=             -0.3916  Tot=              3.9190

 Test job not archived.
 1\1\GINC-SE090\SP\RHF\Aug-CC-pVDZ\C5H10O1\OHZDE\09-Apr-2025\0\\#t hf a
 ug-cc-pvdz iop(5/13=1,5/36=2,99/5=2) pseudo=read geom=check guess=(rea
 d,tcheck) scf=(maxcycle=1)\\title\\0,1\C,0,-2.1486475,0.33692932,-0.29
 632382\C,0,-0.85835561,-0.32262619,0.0927096\C,0,0.17336359,0.43310807
 ,0.87255564\C,0,1.48397448,-0.32523226,0.70022331\C,0,1.84187136,-0.45
 070634,-0.74459333\O,0,1.38104166,0.27737121,-1.7843667\H,0,-2.6974898
 9,-0.25114733,-1.04835899\H,0,-2.84582818,0.46845948,0.56154982\H,0,-1
 .98843633,1.34835317,-0.70873796\H,0,-0.91846709,-1.38989969,0.3299077

 Normal termination of Gaussian 16 at Wed Apr  9 03:09:52 2025.
