 Gaussian 16, Revision C.01,

 ----------------------------------------------------------------------
 #t hf aug-cc-pvdz symm=none int=(grid=ultrafine) guess=(read,tcheck) s
 table=(opt,rrhf)
 ----------------------------------------------------------------------
 -----
 title
 -----
 Symbolic Z-matrix:
 Charge =  0 Multiplicity = 1

 SCF Done:  E(RHF) =  -317.598683520     A.U. after   16 cycles
 Normal termination of Gaussian 16 at Wed Apr  9 19:14:44 2025.
 Gaussian 16:  ES64L-G16RevC.01  3-Jul-2019

 ----------------------------------------------------------------------
 #t hf aug-cc-pvdz iop(5/13=1,5/36=2,99/5=2) pseudo=read geom=check gue
 ss=(read,tcheck) scf=(maxcycle=1)
 ----------------------------------------------------------------------
 -----
 title
 -----
 Structure from the checkpoint file:  "Grambow2020_wb97xd3_008972_reverse_mol1.chk"
 Charge =  0 Multiplicity = 1

                         Standard orientation:
 ---------------------------------------------------------------------
 Center     Atomic      Atomic             Coordinates (Angstroms)
 Number     Number       Type             X           Y           Z
 ---------------------------------------------------------------------
      1          7           0        1.657382    0.101249   -0.881715
      2          6           0        0.565858   -0.028237    0.039011
      3          6           0        1.332317   -0.166622    1.345108
      4          7           0       -0.326182   -1.189153   -0.059579
      5          6           0       -1.498722   -0.693432   -0.081651
      6          7           0       -1.619975    0.729138   -0.045532
      7          6           0       -0.406408    1.121107   -0.020329
      8          1           0        2.223955   -0.735072   -0.875608
      9          1           0        1.370368    0.345559   -1.819592
     10          1           0        0.990498    0.631695    2.036296
     11          1           0       -2.397641   -1.296711   -0.139132
     12          1           0       -0.124027    2.168998    0.012982
 ---------------------------------------------------------------------

 SCF Done:  E(RHF) =  -317.917163393     A.U. after    2 cycles

 The electronic state is 1-A.
 Alpha  occ. eigenvalues --  -15.52729 -15.51985 -15.51106 -11.32797 -11.32397
 Alpha  occ. eigenvalues --  -11.31525 -11.30971  -1.34902  -1.22803  -1.18138
 Alpha  occ. eigenvalues --   -1.02494  -0.91191  -0.83270  -0.81600  -0.75344
 Alpha  occ. eigenvalues --   -0.70201  -0.68533  -0.62599  -0.61791  -0.54181
 Alpha  occ. eigenvalues --   -0.52490  -0.50317  -0.46553  -0.44504  -0.39139
 Alpha virt. eigenvalues --    0.02311   0.03390   0.04242   0.04651   0.04919
 Alpha virt. eigenvalues --    0.05722   0.06438   0.08839   0.09426   0.10255
 Alpha virt. eigenvalues --    0.11012   0.13333   0.13973   0.14770   0.14858

 Mulliken charges:
               1
     1  N    0.645245
     2  C   -2.012421
     3  C    0.088646
     4  N    0.859513
     5  C   -0.365605
     6  N    0.822484
     7  C   -0.603274
     8  H    0.229119
     9  H    0.213635
    10  H    0.181738
    11  H   -0.020297
    12  H   -0.038782
 Sum of Mulliken charges =   0.00000

 Dipole moment (field-independent basis, Debye):
    X=             -0.2805    Y=              1.8683    Z=             -1.0401  Tot=              2.1567

 Test job not archived.
 1\1\GINC-SE222\SP\RHF\Aug-CC-pVDZ\C4H5N3\OHZDE\09-Apr-2025\0\\#t hf au
 g-cc-pvdz iop(5/13=1,5/36=2,99/5=2) pseudo=read geom=check guess=(read
 ,tcheck) scf=(maxcycle=1)\\title\\0,1\N,0,-1.58665246,0.06994983,-0.65
 615413\C,0,-0.30110018,0.30525542,-0.06631066\C,0,-0.55791907,1.642455
 39,0.61077047\N,0,0.86860475,0.48204122,-0.93448075\C,0,1.73612165,-0.
 32884635,-0.4751855\N,0,1.36135709,-1.14466844,0.63553515\C,0,0.150275
 07,-0.80468447,0.84698455\H,0,-1.80017487,0.78888308,-1.33292328\H,0,-
 1.68741243,-0.85347441,-1.05466795\H,0,-0.32943724,1.53561808,1.691637

 Normal termination of Gaussian 16 at Wed Apr  9 19:14:48 2025.
