 Gaussian 16, Revision C.01,

 ----------------------------------------------------------------------
 #t hf aug-cc-pvdz symm=none int=(grid=ultrafine) guess=(read,tcheck) s
 table=(opt,rrhf)
 ----------------------------------------------------------------------
 -----
 title
 -----
 Symbolic Z-matrix:
 Charge =  0 Multiplicity = 1

 SCF Done:  E(RHF) =  -323.819187108     A.U. after   14 cycles
 Normal termination of Gaussian 16 at Wed Apr  9 17:49:02 2025.
 Gaussian 16:  ES64L-G16RevC.01  3-Jul-2019

 ----------------------------------------------------------------------
 #t hf aug-cc-pvdz iop(5/13=1,5/36=2,99/5=2) pseudo=read geom=check gue
 ss=(read,tcheck) scf=(maxcycle=1)
 ----------------------------------------------------------------------
 -----
 title
 -----
 Structure from the checkpoint file:  "Grambow2020_wb97xd3_006831_reverse_mol2.chk"
 Charge =  0 Multiplicity = 1

                         Standard orientation:
 ---------------------------------------------------------------------
 Center     Atomic      Atomic             Coordinates (Angstroms)
 Number     Number       Type             X           Y           Z
 ---------------------------------------------------------------------
      1          6           0        1.757218   -1.359126   -0.355475
      2          6           0        1.141026   -0.239190    0.464544
      3          6           0        1.466849    1.221389    0.012818
      4          6           0       -0.020868    1.383528   -0.219394
      5          6           0       -0.291298    0.135685    0.165351
      6          7           0       -1.424975   -0.635081    0.356908
      7          8           0       -2.544462   -0.114895   -0.315634
      8          1           0        2.837697   -1.401587   -0.202070
      9          1           0        1.571475   -1.204445   -1.421304
     10          1           0        1.350838   -2.335752   -0.078887
     11          1           0        1.327839   -0.398782    1.530641
     12          1           0        1.906857    1.846697    0.793948
     13          1           0        2.100164    1.273496   -0.877095
     14          1           0       -1.300373   -1.589406    0.042602
     15          1           0       -0.631333    2.206317   -0.561287
     16          1           0       -3.150216    0.114478    0.393113
 ---------------------------------------------------------------------

 SCF Done:  E(RHF) =  -324.161249012     A.U. after    2 cycles

 The electronic state is 1-A.
 Alpha  occ. eigenvalues --  -20.58813 -15.56320 -11.26177 -11.24108 -11.22861
 Alpha  occ. eigenvalues --  -11.22826 -11.21373  -1.50092  -1.19284  -1.11571
 Alpha  occ. eigenvalues --   -0.99130  -0.88220  -0.83696  -0.76744  -0.72204
 Alpha  occ. eigenvalues --   -0.69319  -0.67271  -0.62432  -0.58660  -0.55847
 Alpha  occ. eigenvalues --   -0.53710  -0.51376  -0.50075  -0.48390  -0.46176
 Alpha  occ. eigenvalues --   -0.45571  -0.33016
 Alpha virt. eigenvalues --    0.03497   0.04020   0.04298   0.04554   0.05595
 Alpha virt. eigenvalues --    0.06005   0.06563   0.07176   0.08771   0.11557
 Alpha virt. eigenvalues --    0.12645   0.13355   0.13816   0.14280   0.14469

 Mulliken charges:
               1
     1  C   -0.280812
     2  C   -0.510317
     3  C   -0.191807
     4  C    0.664095
     5  C   -1.195730
     6  N    1.568844
     7  O   -1.163459
     8  H    0.140075
     9  H    0.214351
    10  H    0.136354
    11  H    0.077736
    12  H    0.093778
    13  H    0.091872
    14  H    0.172706
    15  H   -0.127852
    16  H    0.310167
 Sum of Mulliken charges =   0.00000

 Dipole moment (field-independent basis, Debye):
    X=              0.0858    Y=             -0.7357    Z=              0.6458  Tot=              0.9827

 Test job not archived.
 1\1\GINC-SE229\SP\RHF\Aug-CC-pVDZ\C5H9N1O1\OHZDE\09-Apr-2025\0\\#t hf
 aug-cc-pvdz iop(5/13=1,5/36=2,99/5=2) pseudo=read geom=check guess=(re
 ad,tcheck) scf=(maxcycle=1)\\title\\0,1\C,0,-1.64321293,-0.9703877,0.2
 0009228\C,0,-0.60391697,-0.24782337,-0.63904068\C,0,-0.74724547,1.3049
 3589,-0.74814621\C,0,0.60971643,1.38499741,-0.08049517\C,0,0.72439907,
 0.05958007,0.01109755\N,0,1.68624723,-0.84036956,0.43646505\O,0,2.6425
 0875,-0.243054,1.27607019\H,0,-2.6180644,-0.9527936,-0.29196957\H,0,-1
 .74812724,-0.49473625,1.17844109\H,0,-1.37839422,-2.01910847,0.3597796

 Normal termination of Gaussian 16 at Wed Apr  9 17:49:08 2025.
