 Gaussian 16, Revision C.01,

 ----------------------------------------------------------------------
 #t hf aug-cc-pvdz symm=none int=(grid=ultrafine) guess=(read,tcheck) s
 table=(opt,rrhf)
 ----------------------------------------------------------------------
 -----
 title
 -----
 Symbolic Z-matrix:
 Charge =  0 Multiplicity = 1

 SCF Done:  E(RHF) =  -343.652112533     A.U. after   13 cycles
 Normal termination of Gaussian 16 at Wed Apr  9 04:04:49 2025.
 Gaussian 16:  ES64L-G16RevC.01  3-Jul-2019

 ----------------------------------------------------------------------
 #t hf aug-cc-pvdz iop(5/13=1,5/36=2,99/5=2) pseudo=read geom=check gue
 ss=(read,tcheck) scf=(maxcycle=1)
 ----------------------------------------------------------------------
 -----
 title
 -----
 Structure from the checkpoint file:  "Grambow2020_wb97xd3_009115_reverse_mol2.chk"
 Charge =  0 Multiplicity = 1

                         Standard orientation:
 ---------------------------------------------------------------------
 Center     Atomic      Atomic             Coordinates (Angstroms)
 Number     Number       Type             X           Y           Z
 ---------------------------------------------------------------------
      1          6           0       -2.186510   -0.296513    0.801923
      2          6           0       -1.445669    0.507702   -0.199349
      3          8           0       -0.118189    0.184913   -0.520056
      4          6           0        0.831482    0.828394    0.303563
      5          6           0        2.191480    0.295147   -0.082968
      6          8           0        2.276436   -1.097633    0.113847
      7          6           0       -2.479456   -0.508056   -0.439826
      8          1           0        1.505421   -1.483056   -0.311793
      9          1           0       -2.332640   -0.538022    1.840253
     10          1           0       -1.642017    1.573164   -0.334441
     11          1           0        0.628315    0.605299    1.359585
     12          1           0        0.794114    1.917998    0.164742
     13          1           0        2.396800    0.558097   -1.128939
     14          1           0        2.959905    0.755861    0.540632
     15          1           0       -3.043834   -1.047622   -1.180426
 ---------------------------------------------------------------------

 SCF Done:  E(RHF) =  -344.007870037     A.U. after    2 cycles

 The electronic state is 1-A.
 Alpha  occ. eigenvalues --  -20.54606 -20.53648 -11.30939 -11.28256 -11.27788
 Alpha  occ. eigenvalues --  -11.26342 -11.26114  -1.47660  -1.43850  -1.18514
 Alpha  occ. eigenvalues --   -1.00687  -0.85493  -0.81810  -0.78673  -0.72509
 Alpha  occ. eigenvalues --   -0.70267  -0.66858  -0.65021  -0.61344  -0.57712
 Alpha  occ. eigenvalues --   -0.54441  -0.52913  -0.48849  -0.45429  -0.43248
 Alpha  occ. eigenvalues --   -0.41111  -0.39568
 Alpha virt. eigenvalues --    0.03519   0.03561   0.03842   0.04773   0.05587
 Alpha virt. eigenvalues --    0.06601   0.07156   0.07979   0.09382   0.10241
 Alpha virt. eigenvalues --    0.12192   0.12751   0.13559   0.14159   0.14888

 Mulliken charges:
               1
     1  C    0.041143
     2  C    0.982852
     3  O   -1.358707
     4  C    0.251491
     5  C    0.582061
     6  O   -1.154775
     7  C    0.240063
     8  H    0.352053
     9  H   -0.213959
    10  H   -0.019754
    11  H    0.167847
    12  H    0.149552
    13  H    0.108670
    14  H    0.085274
    15  H   -0.213810
 Sum of Mulliken charges =  -0.00000

 Dipole moment (field-independent basis, Debye):
    X=             -2.2220    Y=              1.2686    Z=              0.3384  Tot=              2.5809

 Test job not archived.
 1\1\GINC-SE021\SP\RHF\Aug-CC-pVDZ\C5H8O2\OHZDE\09-Apr-2025\0\\#t hf au
 g-cc-pvdz iop(5/13=1,5/36=2,99/5=2) pseudo=read geom=check guess=(read
 ,tcheck) scf=(maxcycle=1)\\title\\0,1\C,0,-2.30886045,0.10393837,0.503
 9382\C,0,-1.38326566,-0.10479852,-0.63529608\O,0,-0.04207555,-0.444494
 62,-0.40063788\C,0,0.80618554,0.67634482,-0.26475692\C,0,2.17799148,0.
 15638268,0.09737541\O,0,2.15681678,-0.55783621,1.3119672\C,0,-2.422516
 35,-1.0147131,-0.1349747\H,0,1.43895677,-1.19370225,1.24460882\H,0,-2.
 62252334,0.74413691,1.30989832\H,0,-1.49906052,0.44255397,-1.57285107\

 Normal termination of Gaussian 16 at Wed Apr  9 04:04:54 2025.
