 Gaussian 16, Revision C.01,

 ----------------------------------------------------------------------
 #t hf aug-cc-pvdz symm=none int=(grid=ultrafine) guess=(read,tcheck) s
 table=(opt,rrhf)
 ----------------------------------------------------------------------
 -----
 title
 -----
 Symbolic Z-matrix:
 Charge =  0 Multiplicity = 1

 SCF Done:  E(RHF) =  -308.848527496     A.U. after   14 cycles

 1\1\GINC-SE345\Stability\RHF\Aug-CC-pVDZ\C6H12O1\OHZDE\09-Apr-2025\0\\
 #t hf aug-cc-pvdz symm=none int=(grid=ultrafine) guess=(read,tcheck) s
 table=(opt,rrhf)\\title\\0,1\C,0,1.93016828,1.09019766,-0.11596027\C,0
 ,1.1128829,-0.04140643,0.42503246\C,0,1.43804363,-1.38607249,0.1060313
 5\C,0,-0.71477523,0.40008549,-0.5835707\C,0,-1.72686186,-0.71956778,-0
 .7301334\C,0,-1.95739092,0.37681324,0.23430905\O,0,-1.89641659,0.02597
 406,1.59497872\H,0,1.42225178,2.04858522,-0.02243567\H,0,2.8658252,1.1
 202923,0.448564\H,0,2.18012533,0.92079992,-1.16374694\H,0,0.6297712,0.

 Normal termination of Gaussian 16 at Wed Apr  9 03:52:56 2025.
 Gaussian 16:  ES64L-G16RevC.01  3-Jul-2019

 ----------------------------------------------------------------------
 #t hf aug-cc-pvdz iop(5/13=1,5/36=2,99/5=2) pseudo=read geom=check gue
 ss=(read,tcheck) scf=(maxcycle=1)
 ----------------------------------------------------------------------
 -----
 title
 -----
 Structure from the checkpoint file:  "Grambow2020_wb97xd3_008297_forward_mol1.chk"
 Charge =  0 Multiplicity = 1

                         Standard orientation:
 ---------------------------------------------------------------------
 Center     Atomic      Atomic             Coordinates (Angstroms)
 Number     Number       Type             X           Y           Z
 ---------------------------------------------------------------------
      1          6           0       -2.195893   -0.993965   -0.396495
      2          6           0       -1.303651   -0.108972    0.417045
      3          6           0       -1.636176    1.254763    0.629818
      4          6           0        0.395233   -0.128510   -0.873668
      5          6           0        1.406305    0.991713   -0.724485
      6          6           0        1.719432   -0.369215   -0.239539
      7          8           0        1.812977   -0.521877    1.155513
      8          1           0       -1.698920   -1.913027   -0.702396
      9          1           0       -3.065211   -1.240560    0.218750
     10          1           0       -2.554779   -0.471331   -1.283673
     11          1           0       -0.722896   -0.585129    1.196275
     12          1           0       -2.400411    1.719078    0.022493
     13          1           0       -0.578889    0.810051   -0.220755
     14          1           0       -1.254215    1.775460    1.494158
     15          1           0        0.201074   -0.522751   -1.865634
     16          1           0        1.918883    1.385345   -1.593314
     17          1           0        1.183751    1.738842    0.040439
     18          1           0        2.462800   -0.944759   -0.787757
     19          1           0        1.693500   -1.451083    1.361250
 ---------------------------------------------------------------------

 SCF Done:  E(RHF) =  -309.183906974     A.U. after    2 cycles

 The electronic state is 1-A.
 Alpha  occ. eigenvalues --  -20.54914 -11.31665 -11.28328 -11.24612 -11.22699
 Alpha  occ. eigenvalues --  -11.20657 -11.20388  -1.45311  -1.14143  -1.09746
 Alpha  occ. eigenvalues --   -0.95652  -0.81311  -0.81120  -0.77395  -0.71023
 Alpha  occ. eigenvalues --   -0.67622  -0.64757  -0.62834  -0.59992  -0.58354
 Alpha  occ. eigenvalues --   -0.56084  -0.54288  -0.51893  -0.50239  -0.48998
 Alpha  occ. eigenvalues --   -0.41625  -0.39787  -0.26889
 Alpha virt. eigenvalues --    0.02937   0.03636   0.03674   0.04409   0.05812
 Alpha virt. eigenvalues --    0.05859   0.06257   0.06567   0.07217   0.09097
 Alpha virt. eigenvalues --    0.09456   0.10519   0.12218   0.12643   0.13702

 Mulliken charges:
               1
     1  C   -0.133965
     2  C   -0.455617
     3  C   -0.080880
     4  C   -0.243498
     5  C   -0.341710
     6  C    1.674782
     7  O   -1.374852
     8  H    0.166491
     9  H    0.189406
    10  H    0.222746
    11  H   -0.087686
    12  H   -0.094966
    13  H    0.982240
    14  H   -0.109328
    15  H   -0.308831
    16  H   -0.174973
    17  H   -0.001275
    18  H   -0.157199
    19  H    0.329114
 Sum of Mulliken charges =   0.00000

 Dipole moment (field-independent basis, Debye):
    X=             -0.9224    Y=             -2.2236    Z=             -0.9066  Tot=              2.5724

 Test job not archived.
 1\1\GINC-SE345\SP\RHF\Aug-CC-pVDZ\C6H12O1\OHZDE\09-Apr-2025\0\\#t hf a
 ug-cc-pvdz iop(5/13=1,5/36=2,99/5=2) pseudo=read geom=check guess=(rea
 d,tcheck) scf=(maxcycle=1)\\title\\0,1\C,0,1.93016828,1.09019766,-0.11
 596027\C,0,1.1128829,-0.04140643,0.42503246\C,0,1.43804363,-1.38607249
 ,0.10603135\C,0,-0.71477523,0.40008549,-0.5835707\C,0,-1.72686186,-0.7
 1956778,-0.7301334\C,0,-1.95739092,0.37681324,0.23430905\O,0,-1.896416
 59,0.02597406,1.59497872\H,0,1.42225178,2.04858522,-0.02243567\H,0,2.8
 658252,1.1202923,0.448564\H,0,2.18012533,0.92079992,-1.16374694\H,0,0.

 Normal termination of Gaussian 16 at Wed Apr  9 03:53:03 2025.
