 Gaussian 16, Revision C.01,

 ----------------------------------------------------------------------
 #t hf aug-cc-pvdz symm=none int=(grid=ultrafine) guess=(read,tcheck) s
 table=(opt,rrhf)
 ----------------------------------------------------------------------
 -----
 title
 -----
 Symbolic Z-matrix:
 Charge =  0 Multiplicity = 1

 SCF Done:  E(RHF) =  -338.745896045     A.U. after   15 cycles
 Normal termination of Gaussian 16 at Wed Apr  9 19:05:48 2025.
 Gaussian 16:  ES64L-G16RevC.01  3-Jul-2019

 ----------------------------------------------------------------------
 #t hf aug-cc-pvdz iop(5/13=1,5/36=2,99/5=2) pseudo=read geom=check gue
 ss=(read,tcheck) scf=(maxcycle=1)
 ----------------------------------------------------------------------
 -----
 title
 -----
 Structure from the checkpoint file:  "Grambow2020_wb97xd3_008544_reverse_mol2.chk"
 Charge =  0 Multiplicity = 1

                         Standard orientation:
 ---------------------------------------------------------------------
 Center     Atomic      Atomic             Coordinates (Angstroms)
 Number     Number       Type             X           Y           Z
 ---------------------------------------------------------------------
      1          6           0       -3.016046    0.270381    0.370477
      2          6           0       -0.849989   -0.514833   -0.219157
      3          7           0       -1.966500   -0.196466   -0.512221
      4          8           0        1.215875    1.352802   -0.126301
      5          6           0        1.448533    0.168111    0.009027
      6          7           0        2.716705   -0.302574    0.200069
      7          6           0        0.400147   -0.870542    0.011809
      8          1           0       -3.893220   -0.360222    0.230831
      9          1           0       -2.714473    0.261168    1.419559
     10          1           0       -3.279674    1.285490    0.076045
     11          1           0        2.927525   -1.279918    0.129423
     12          1           0        3.466819    0.357545    0.100213
     13          1           0        0.618711   -1.911901    0.206470
 ---------------------------------------------------------------------

 SCF Done:  E(RHF) =  -339.090019864     A.U. after    2 cycles

 The electronic state is 1-A.
 Alpha  occ. eigenvalues --  -20.49730 -15.53983 -15.52229 -11.36105 -11.33699
 Alpha  occ. eigenvalues --  -11.29165 -11.24664  -1.45249  -1.28755  -1.21960
 Alpha  occ. eigenvalues --   -1.06492  -0.99651  -0.85807  -0.77496  -0.73651
 Alpha  occ. eigenvalues --   -0.70296  -0.66621  -0.65749  -0.63796  -0.60202
 Alpha  occ. eigenvalues --   -0.59328  -0.53505  -0.49011  -0.43780  -0.42259
 Alpha  occ. eigenvalues --   -0.36691
 Alpha virt. eigenvalues --    0.02721   0.03659   0.04734   0.05527   0.05799
 Alpha virt. eigenvalues --    0.06749   0.09313   0.10205   0.10855   0.11391
 Alpha virt. eigenvalues --    0.11928   0.12493   0.13133   0.13951   0.15004

 Mulliken charges:
               1
     1  C   -0.296930
     2  C   -1.982894
     3  N    0.885982
     4  O   -1.310398
     5  C    0.145887
     6  N    0.646904
     7  C    1.630844
     8  H    0.151695
     9  H    0.097129
    10  H    0.153301
    11  H    0.017745
    12  H    0.064850
    13  H   -0.204115
 Sum of Mulliken charges =  -0.00000

 Dipole moment (field-independent basis, Debye):
    X=             -0.1404    Y=             -3.2011    Z=              1.4034  Tot=              3.4981

 Test job not archived.
 1\1\GINC-SE108\SP\RHF\Aug-CC-pVDZ\C4H6N2O1\OHZDE\09-Apr-2025\0\\#t hf
 aug-cc-pvdz iop(5/13=1,5/36=2,99/5=2) pseudo=read geom=check guess=(re
 ad,tcheck) scf=(maxcycle=1)\\title\\0,1\C,0,-2.77367533,0.33863187,-0.
 44670598\C,0,-0.64022352,-0.438513,0.26072611\N,0,-1.7429517,-0.638424
 58,-0.16101508\O,0,1.49837303,0.07435241,-1.45037082\C,0,1.68353236,-0
 .07570647,-0.25909593\N,0,2.93180226,-0.01219675,0.29234859\C,0,0.5945
 7982,-0.30892234,0.70926001\H,0,-3.67518866,0.06180057,0.09848511\H,0,
 -2.47344394,1.35324457,-0.17833016\H,0,-2.99642762,0.29434293,-1.51209

 Normal termination of Gaussian 16 at Wed Apr  9 19:05:52 2025.
