 Gaussian 16, Revision C.01,

 ----------------------------------------------------------------------
 #t hf aug-cc-pvdz symm=none int=(grid=ultrafine) guess=(read,tcheck) s
 table=(opt,rrhf)
 ----------------------------------------------------------------------
 -----
 title
 -----
 Symbolic Z-matrix:
 Charge =  0 Multiplicity = 1

 SCF Done:  E(RHF) =  -302.720936896     A.U. after   15 cycles
 Normal termination of Gaussian 16 at Wed Apr  9 19:11:03 2025.
 Gaussian 16:  ES64L-G16RevC.01  3-Jul-2019

 ----------------------------------------------------------------------
 #t hf aug-cc-pvdz iop(5/13=1,5/36=2,99/5=2) pseudo=read geom=check gue
 ss=(read,tcheck) scf=(maxcycle=1)
 ----------------------------------------------------------------------
 -----
 title
 -----
 Structure from the checkpoint file:  "Grambow2020_wb97xd3_008838_reverse_mol1.chk"
 Charge =  0 Multiplicity = 1

                         Standard orientation:
 ---------------------------------------------------------------------
 Center     Atomic      Atomic             Coordinates (Angstroms)
 Number     Number       Type             X           Y           Z
 ---------------------------------------------------------------------
      1          6           0       -0.654224    1.522584   -0.173842
      2          6           0       -0.479175   -0.332678   -0.631520
      3          6           0        0.651671   -0.926932    0.204367
      4          6           0        1.918810   -0.213602    0.069251
      5          7           0        2.908569    0.358101   -0.027757
      6          6           0       -1.718199    0.212603    0.567089
      7          7           0       -1.704070   -0.965062   -0.215365
      8          1           0       -0.854354    2.138957    0.712790
      9          1           0        0.419414    1.595944   -0.325142
     10          1           0       -1.165669    1.943351   -1.033294
     11          1           0        0.780166   -1.924756   -0.224699
     12          1           0        0.443254   -1.079019    1.270572
     13          1           0       -2.609650    0.818509    0.466722
     14          1           0       -1.373330    0.085024    1.586246
     15          1           0       -2.384626   -0.901139   -0.963416
 ---------------------------------------------------------------------

 SCF Done:  E(RHF) =  -303.037917651     A.U. after    2 cycles

 The electronic state is 1-A.
 Alpha  occ. eigenvalues --  -15.52614 -15.50599 -11.33559 -11.29455 -11.28672
 Alpha  occ. eigenvalues --  -11.28104 -11.27548  -1.29966  -1.23254  -1.06190
 Alpha  occ. eigenvalues --   -1.00695  -0.89796  -0.84540  -0.71321  -0.70704
 Alpha  occ. eigenvalues --   -0.67095  -0.64033  -0.63370  -0.59442  -0.58143
 Alpha  occ. eigenvalues --   -0.57404  -0.53412  -0.49829  -0.48992  -0.44684
 Alpha  occ. eigenvalues --   -0.34428
 Alpha virt. eigenvalues --    0.02441   0.03513   0.03868   0.04404   0.05573
 Alpha virt. eigenvalues --    0.06102   0.07357   0.07907   0.08738   0.11221
 Alpha virt. eigenvalues --    0.12432   0.12724   0.12858   0.13678   0.14159

 Mulliken charges:
               1
     1  C   -0.184071
     2  C   -1.219693
     3  C    0.365224
     4  C   -1.608551
     5  N    0.922477
     6  C   -0.277631
     7  N    0.551953
     8  H    0.142328
     9  H    0.120169
    10  H    0.186391
    11  H    0.281245
    12  H    0.302776
    13  H    0.061696
    14  H    0.002462
    15  H    0.353225
 Sum of Mulliken charges =  -0.00000

 Dipole moment (field-independent basis, Debye):
    X=             -5.4372    Y=              0.0990    Z=              1.6252  Tot=              5.6758

 Test job not archived.
 1\1\GINC-SE056\SP\RHF\Aug-CC-pVDZ\C5H8N2\OHZDE\09-Apr-2025\0\\#t hf au
 g-cc-pvdz iop(5/13=1,5/36=2,99/5=2) pseudo=read geom=check guess=(read
 ,tcheck) scf=(maxcycle=1)\\title\\0,1\C,0,-0.89170499,0.91288628,0.620
 60812\C,0,-0.19518158,-0.12035498,-0.83863044\C,0,1.32162855,-0.201820
 21,-0.68595916\C,0,1.97234127,1.10174637,-0.58583882\N,0,2.47846829,2.
 12692524,-0.49245009\C,0,-0.86366893,-0.92997044,0.63338283\N,0,-0.719
 44398,-1.45122006,-0.67307306\H,0,-0.90570484,0.88640709,1.71841738\H,
 0,-0.13841568,1.655463,0.37139482\H,0,-1.85651234,1.24501406,0.2516686

 Normal termination of Gaussian 16 at Wed Apr  9 19:11:08 2025.
