 Gaussian 16, Revision C.01,

 ----------------------------------------------------------------------
 #t hf aug-cc-pvdz symm=none int=(grid=ultrafine) guess=(read,tcheck) s
 table=(opt,rrhf)
 ----------------------------------------------------------------------
 -----
 title
 -----
 Symbolic Z-matrix:
 Charge =  0 Multiplicity = 1

 SCF Done:  E(RHF) =  -308.906687480     A.U. after   15 cycles

 1\1\GINC-SE232\Stability\RHF\Aug-CC-pVDZ\C6H12O1\OHZDE\09-Apr-2025\0\\
 #t hf aug-cc-pvdz symm=none int=(grid=ultrafine) guess=(read,tcheck) s
 table=(opt,rrhf)\\title\\0,1\C,0,1.90364459,-0.41489466,-0.70378679\C,
 0,1.11425924,0.01193753,0.50561012\O,0,1.88124316,-0.13728218,1.651936
 88\C,0,0.15898578,1.01617805,0.47109144\C,0,-0.7770882,1.31931516,-0.6
 4795055\C,0,-1.74663218,0.39253783,-0.00760852\C,0,-1.83811071,-0.9494
 0292,-0.3062394\H,0,1.26338655,-0.48100588,-1.58275924\H,0,2.35694645,
 -1.39119326,-0.53420357\H,0,2.69700793,0.30810164,-0.9051641\H,0,0.253

 Normal termination of Gaussian 16 at Wed Apr  9 18:27:50 2025.
 Gaussian 16:  ES64L-G16RevC.01  3-Jul-2019

 ----------------------------------------------------------------------
 #t hf aug-cc-pvdz iop(5/13=1,5/36=2,99/5=2) pseudo=read geom=check gue
 ss=(read,tcheck) scf=(maxcycle=1)
 ----------------------------------------------------------------------
 -----
 title
 -----
 Structure from the checkpoint file:  "Grambow2020_wb97xd3_007582_forward_mol1.chk"
 Charge =  0 Multiplicity = 1

                         Standard orientation:
 ---------------------------------------------------------------------
 Center     Atomic      Atomic             Coordinates (Angstroms)
 Number     Number       Type             X           Y           Z
 ---------------------------------------------------------------------
      1          6           0        1.527018    0.970605    0.927137
      2          6           0        1.048264   -0.032280   -0.089214
      3          8           0        2.094884   -0.405183   -0.919953
      4          6           0        0.044560   -0.953071    0.169555
      5          6           0       -1.169297   -0.738337    1.006706
      6          6           0       -1.868057   -0.294649   -0.227735
      7          6           0       -1.933493    1.017275   -0.643582
      8          1           0        0.687726    1.411280    1.464061
      9          1           0        2.080223    1.771213    0.436840
     10          1           0        2.184992    0.483534    1.650002
     11          1           0        0.313139    1.004135   -0.915378
     12          1           0        1.773300   -1.052757   -1.550755
     13          1           0        0.071329   -1.885243   -0.386146
     14          1           0       -1.071287    0.046723    1.754928
     15          1           0       -1.560728   -1.642601    1.467239
     16          1           0       -2.214355   -1.077483   -0.892827
     17          1           0       -2.473317    1.246440   -1.555697
     18          1           0       -0.521507    1.305687   -1.065718
     19          1           0       -1.922554    1.813271    0.095869
 ---------------------------------------------------------------------

 SCF Done:  E(RHF) =  -309.241612728     A.U. after    2 cycles

 The electronic state is 1-A.
 Alpha  occ. eigenvalues --  -20.56092 -11.30603 -11.24950 -11.24635 -11.23615
 Alpha  occ. eigenvalues --  -11.23216 -11.23131  -1.47249  -1.12725  -1.03288
 Alpha  occ. eigenvalues --   -0.97728  -0.90458  -0.77940  -0.77446  -0.70359
 Alpha  occ. eigenvalues --   -0.66762  -0.64718  -0.62482  -0.59055  -0.56241
 Alpha  occ. eigenvalues --   -0.55563  -0.54672  -0.53119  -0.51831  -0.50797
 Alpha  occ. eigenvalues --   -0.49686  -0.32096  -0.31077
 Alpha virt. eigenvalues --    0.03114   0.03541   0.03956   0.04142   0.05839
 Alpha virt. eigenvalues --    0.06085   0.06215   0.06505   0.07827   0.09471
 Alpha virt. eigenvalues --    0.09722   0.10881   0.12138   0.13494   0.13952

 Mulliken charges:
               1
     1  C   -0.384624
     2  C    0.646499
     3  O   -1.437799
     4  C    0.298472
     5  C    0.018515
     6  C    0.505365
     7  C   -0.690758
     8  H    0.169510
     9  H    0.171484
    10  H    0.200715
    11  H    0.529431
    12  H    0.237271
    13  H   -0.318073
    14  H   -0.003862
    15  H   -0.003186
    16  H   -0.165289
    17  H   -0.002442
    18  H    0.162514
    19  H    0.066257
 Sum of Mulliken charges =  -0.00000

 Dipole moment (field-independent basis, Debye):
    X=             -1.1092    Y=             -0.8859    Z=              0.1674  Tot=              1.4294

 Test job not archived.
 1\1\GINC-SE232\SP\RHF\Aug-CC-pVDZ\C6H12O1\OHZDE\09-Apr-2025\0\\#t hf a
 ug-cc-pvdz iop(5/13=1,5/36=2,99/5=2) pseudo=read geom=check guess=(rea
 d,tcheck) scf=(maxcycle=1)\\title\\0,1\C,0,1.90364459,-0.41489466,-0.7
 0378679\C,0,1.11425924,0.01193753,0.50561012\O,0,1.88124316,-0.1372821
 8,1.65193688\C,0,0.15898578,1.01617805,0.47109144\C,0,-0.7770882,1.319
 31516,-0.64795055\C,0,-1.74663218,0.39253783,-0.00760852\C,0,-1.838110
 71,-0.94940292,-0.3062394\H,0,1.26338655,-0.48100588,-1.58275924\H,0,2
 .35694645,-1.39119326,-0.53420357\H,0,2.69700793,0.30810164,-0.9051641

 Normal termination of Gaussian 16 at Wed Apr  9 18:27:58 2025.
