 Gaussian 16, Revision C.01,

 ----------------------------------------------------------------------
 #t hf aug-cc-pvdz symm=none int=(grid=ultrafine) guess=(read,tcheck) s
 table=(opt,rrhf)
 ----------------------------------------------------------------------
 -----
 title
 -----
 Symbolic Z-matrix:
 Charge =  0 Multiplicity = 1

 SCF Done:  E(RHF) =  -286.897752252     A.U. after   14 cycles
 Normal termination of Gaussian 16 at Wed Apr  9 18:13:19 2025.
 Gaussian 16:  ES64L-G16RevC.01  3-Jul-2019

 ----------------------------------------------------------------------
 #t hf aug-cc-pvdz iop(5/13=1,5/36=2,99/5=2) pseudo=read geom=check gue
 ss=(read,tcheck) scf=(maxcycle=1)
 ----------------------------------------------------------------------
 -----
 title
 -----
 Structure from the checkpoint file:  "Grambow2020_wb97xd3_007185_reverse_mol2.chk"
 Charge =  0 Multiplicity = 1

                         Standard orientation:
 ---------------------------------------------------------------------
 Center     Atomic      Atomic             Coordinates (Angstroms)
 Number     Number       Type             X           Y           Z
 ---------------------------------------------------------------------
      1          6           0       -2.464421   -0.554640   -0.036947
      2          6           0       -1.082869   -0.004199   -0.004749
      3          6           0       -0.661132    1.258216   -0.055526
      4          6           0        0.841898    1.284992    0.043846
      5          6           0        1.203259   -0.190785    0.031222
      6          6           0        2.412830   -0.734918   -0.078220
      7          7           0       -0.002616   -0.884419    0.147560
      8          1           0       -2.680626   -1.110803    0.878448
      9          1           0       -3.191749    0.249051   -0.136343
     10          1           0       -2.594303   -1.240508   -0.878763
     11          1           0       -1.296453    2.128726   -0.105564
     12          1           0        1.325774    1.817709   -0.777726
     13          1           0        3.288011   -0.107477   -0.168032
     14          1           0        1.181399    1.753409    0.973347
     15          1           0        2.558549   -1.807832   -0.071394
     16          1           0       -0.069680   -1.843342   -0.144650
 ---------------------------------------------------------------------

 SCF Done:  E(RHF) =  -287.204571560     A.U. after    2 cycles

 The electronic state is 1-A.
 Alpha  occ. eigenvalues --  -15.51190 -11.27535 -11.27429 -11.24389 -11.23651
 Alpha  occ. eigenvalues --  -11.21159 -11.20087  -1.27152  -1.05939  -1.04802
 Alpha  occ. eigenvalues --   -0.98200  -0.88150  -0.80078  -0.78366  -0.67716
 Alpha  occ. eigenvalues --   -0.63355  -0.61476  -0.60466  -0.58254  -0.57934
 Alpha  occ. eigenvalues --   -0.55573  -0.52816  -0.51947  -0.49784  -0.37563
 Alpha  occ. eigenvalues --   -0.29420
 Alpha virt. eigenvalues --    0.03309   0.03975   0.04133   0.05034   0.05092
 Alpha virt. eigenvalues --    0.05238   0.05968   0.08393   0.08927   0.09124
 Alpha virt. eigenvalues --    0.10568   0.13425   0.13467   0.14437   0.14646

 Mulliken charges:
               1
     1  C   -0.494366
     2  C   -0.479710
     3  C    0.391922
     4  C   -0.989305
     5  C   -0.372896
     6  C    0.539824
     7  N    0.851972
     8  H    0.226945
     9  H    0.158637
    10  H    0.204536
    11  H   -0.192458
    12  H    0.204509
    13  H   -0.145216
    14  H    0.263760
    15  H   -0.194756
    16  H    0.026600
 Sum of Mulliken charges =  -0.00000

 Dipole moment (field-independent basis, Debye):
    X=             -1.4361    Y=             -0.2973    Z=             -0.4268  Tot=              1.5274

 Test job not archived.
 1\1\GINC-SE041\SP\RHF\Aug-CC-pVDZ\C6H9N1\OHZDE\09-Apr-2025\0\\#t hf au
 g-cc-pvdz iop(5/13=1,5/36=2,99/5=2) pseudo=read geom=check guess=(read
 ,tcheck) scf=(maxcycle=1)\\title\\0,1\C,0,-2.43669071,-0.26640397,0.15
 058482\C,0,-1.00055448,0.11829116,0.10336694\C,0,-0.43553829,1.3244398
 7,0.09358298\C,0,1.06308957,1.17162533,0.07229055\C,0,1.24319227,-0.33
 15314,-0.05709593\C,0,2.36755707,-1.00215174,-0.29624702\N,0,-0.025246
 31,-0.88846901,0.11518096\H,0,-2.65011032,-0.85540814,1.04587121\H,0,-
 3.06785186,0.62037647,0.1582894\H,0,-2.70927075,-0.87359339,-0.7171476

 Normal termination of Gaussian 16 at Wed Apr  9 18:13:24 2025.
