 Gaussian 16, Revision C.01,

 ----------------------------------------------------------------------
 #t hf aug-cc-pvdz symm=none int=(grid=ultrafine) guess=(read,tcheck) s
 table=(opt,rrhf)
 ----------------------------------------------------------------------
 -----
 title
 -----
 Symbolic Z-matrix:
 Charge =  0 Multiplicity = 1

 SCF Done:  E(RHF) =  -262.677967623     A.U. after   15 cycles
 Normal termination of Gaussian 16 at Wed Apr  9 03:14:17 2025.
 Gaussian 16:  ES64L-G16RevC.01  3-Jul-2019

 ----------------------------------------------------------------------
 #t hf aug-cc-pvdz iop(5/13=1,5/36=2,99/5=2) pseudo=read geom=check gue
 ss=(read,tcheck) scf=(maxcycle=1)
 ----------------------------------------------------------------------
 -----
 title
 -----
 Structure from the checkpoint file:  "Grambow2020_b97d3_006911_reverse_mol2.chk"
 Charge =  0 Multiplicity = 1

                         Standard orientation:
 ---------------------------------------------------------------------
 Center     Atomic      Atomic             Coordinates (Angstroms)
 Number     Number       Type             X           Y           Z
 ---------------------------------------------------------------------
      1          6           0       -1.380545    0.730031   -0.000323
      2          6           0       -1.286847   -0.759425   -0.000694
      3          7           0       -0.068345   -1.213196    0.000267
      4          7           0        2.039232   -0.145933    0.000064
      5          6           0        0.757577   -0.041690   -0.000953
      6          6           0       -0.103769    1.178245    0.000257
      7          1           0       -2.297924    1.311743    0.000861
      8          1           0       -2.137761   -1.440400    0.004039
      9          1           0        2.456480    0.798797    0.002501
     10          1           0        0.264500    2.200796    0.000557
 ---------------------------------------------------------------------

 SCF Done:  E(RHF) =  -262.941848290     A.U. after    2 cycles

 The electronic state is 1-A.
 Alpha  occ. eigenvalues --  -15.52180 -15.51213 -11.32644 -11.31547 -11.28210
 Alpha  occ. eigenvalues --  -11.28105  -1.29559  -1.19998  -1.07459  -0.93858
 Alpha  occ. eigenvalues --   -0.82205  -0.77142  -0.74620  -0.65149  -0.63165
 Alpha  occ. eigenvalues --   -0.59414  -0.58759  -0.51343  -0.47060  -0.44226
 Alpha  occ. eigenvalues --   -0.39625
 Alpha virt. eigenvalues --    0.00716   0.02811   0.03333   0.04002   0.06210
 Alpha virt. eigenvalues --    0.09818   0.10404   0.11884   0.12001   0.12680
 Alpha virt. eigenvalues --    0.12797   0.13300   0.13618   0.14862   0.15264

 Mulliken charges:
               1
     1  C    0.396680
     2  C   -0.493565
     3  N    0.724812
     4  N    0.798478
     5  C   -1.770195
     6  C    0.452660
     7  H   -0.094852
     8  H   -0.057116
     9  H    0.185204
    10  H   -0.142105
 Sum of Mulliken charges =  -0.00000

 Dipole moment (field-independent basis, Debye):
    X=             -3.7366    Y=              4.0971    Z=              0.0037  Tot=              5.5451

 Test job not archived.
 1\1\GINC-SE162\SP\RHF\Aug-CC-pVDZ\C4H4N2\OHZDE\09-Apr-2025\0\\#t hf au
 g-cc-pvdz iop(5/13=1,5/36=2,99/5=2) pseudo=read geom=check guess=(read
 ,tcheck) scf=(maxcycle=1)\\title\\0,1\C,0,0.7869598,1.024061,-0.109538
 \C,0,1.48186646,-0.2966254,-0.12184819\N,0,0.68274797,-1.31633681,-0.0
 1114938\N,0,-1.66230897,-1.49816977,0.20925469\C,0,-0.62780341,-0.7442
 134,0.08736993\C,0,-0.53061838,0.74448698,0.02038373\H,0,1.26359051,1.
 99674581,-0.1912686\H,0,2.5582703,-0.43697196,-0.21911865\H,0,-2.50815
 533,-0.90785823,0.26114573\H,0,-1.37513395,1.42675276,0.07078474\\Vers

 Normal termination of Gaussian 16 at Wed Apr  9 03:14:20 2025.
