 Gaussian 16, Revision C.01,

 ----------------------------------------------------------------------
 #t hf aug-cc-pvdz symm=none int=(grid=ultrafine) guess=(read,tcheck) s
 table=(opt,rrhf)
 ----------------------------------------------------------------------
 -----
 title
 -----
 Symbolic Z-matrix:
 Charge =  0 Multiplicity = 1

 SCF Done:  E(RHF) =  -324.944753258     A.U. after   16 cycles
 Normal termination of Gaussian 16 at Wed Apr  9 18:51:05 2025.
 Gaussian 16:  ES64L-G16RevC.01  3-Jul-2019

 ----------------------------------------------------------------------
 #t hf aug-cc-pvdz iop(5/13=1,5/36=2,99/5=2) pseudo=read geom=check gue
 ss=(read,tcheck) scf=(maxcycle=1)
 ----------------------------------------------------------------------
 -----
 title
 -----
 Structure from the checkpoint file:  "Grambow2020_wb97xd3_008111_reverse_mol1.chk"
 Charge =  0 Multiplicity = 1

                         Standard orientation:
 ---------------------------------------------------------------------
 Center     Atomic      Atomic             Coordinates (Angstroms)
 Number     Number       Type             X           Y           Z
 ---------------------------------------------------------------------
      1          6           0       -2.141014   -0.179715   -0.634454
      2          7           0       -1.613804    0.883418   -0.014967
      3          6           0       -0.360970   -0.393641    0.300184
      4          8           0       -0.393441   -0.866121    1.404863
      5          6           0        0.853251    0.174561   -0.442562
      6          6           0        1.458434    1.318770    0.362950
      7          6           0        1.854531   -0.960988   -0.639414
      8          1           0       -0.914393   -1.094838   -0.622256
      9          1           0       -2.366247   -0.198641   -1.703424
     10          1           0       -2.703332   -0.879840   -0.020306
     11          1           0       -1.265849    1.555688   -0.689625
     12          1           0        0.529123    0.533824   -1.422758
     13          1           0        1.767587    0.962104    1.346146
     14          1           0        0.746887    2.131074    0.512609
     15          1           0        2.335888    1.715380   -0.151123
     16          1           0        2.743208   -0.591552   -1.153983
     17          1           0        2.158418   -1.371323    0.324591
     18          1           0        1.427471   -1.770747   -1.234229
 ---------------------------------------------------------------------

 SCF Done:  E(RHF) =  -325.290061315     A.U. after    2 cycles

 The electronic state is 1-A.
 Alpha  occ. eigenvalues --  -20.49371 -15.49838 -11.37863 -11.35431 -11.26598
 Alpha  occ. eigenvalues --  -11.23330 -11.22907  -1.45488  -1.23947  -1.09563
 Alpha  occ. eigenvalues --   -0.94639  -0.91585  -0.88906  -0.76863  -0.72340
 Alpha  occ. eigenvalues --   -0.68414  -0.65462  -0.62408  -0.61757  -0.60153
 Alpha  occ. eigenvalues --   -0.55840  -0.54262  -0.53189  -0.50388  -0.50070
 Alpha  occ. eigenvalues --   -0.47136  -0.40452  -0.36659
 Alpha virt. eigenvalues --    0.02414   0.03365   0.03743   0.04577   0.05582
 Alpha virt. eigenvalues --    0.06078   0.06130   0.07497   0.07941   0.08582
 Alpha virt. eigenvalues --    0.09580   0.10036   0.12002   0.12788   0.13950

 Mulliken charges:
               1
     1  C   -0.560328
     2  N    0.300140
     3  C    1.062899
     4  O   -1.488587
     5  C   -1.416054
     6  C    0.083823
     7  C    0.012534
     8  H    0.404791
     9  H    0.036612
    10  H    0.123711
    11  H    0.151465
    12  H    0.115057
    13  H    0.261110
    14  H    0.152167
    15  H    0.169185
    16  H    0.165485
    17  H    0.252991
    18  H    0.173000
 Sum of Mulliken charges =  -0.00000

 Dipole moment (field-independent basis, Debye):
    X=              0.0520    Y=              0.1974    Z=             -5.0263  Tot=              5.0305

 Test job not archived.
 1\1\GINC-SE118\SP\RHF\Aug-CC-pVDZ\C5H11N1O1\OHZDE\09-Apr-2025\0\\#t hf
  aug-cc-pvdz iop(5/13=1,5/36=2,99/5=2) pseudo=read geom=check guess=(r
 ead,tcheck) scf=(maxcycle=1)\\title\\0,1\C,0,2.36390478,0.27404789,-0.
 36890387\N,0,1.75022583,-0.91100396,-0.47385933\C,0,0.64652292,-0.0161
 2201,0.65787449\O,0,0.76319537,-0.31820868,1.81534539\C,0,-0.64315554,
 0.06307424,-0.16633027\C,0,-1.33669654,-1.29461179,-0.16603311\C,0,-1.
 52790471,1.14263721,0.452174\H,0,1.23917006,1.0659724,0.30193681\H,0,2
 .55522818,0.92669191,-1.22402679\H,0,3.01493525,0.41799093,0.49074346\

 Normal termination of Gaussian 16 at Wed Apr  9 18:51:12 2025.
