 Gaussian 16, Revision C.01,

 ----------------------------------------------------------------------
 #t hf aug-cc-pvdz symm=none int=(grid=ultrafine) guess=(read,tcheck) s
 table=(opt,rrhf)
 ----------------------------------------------------------------------
 -----
 title
 -----
 Symbolic Z-matrix:
 Charge =  0 Multiplicity = 1

 SCF Done:  E(RHF) =  -317.712857159     A.U. after   15 cycles
 Normal termination of Gaussian 16 at Wed Apr  9 18:46:23 2025.
 Gaussian 16:  ES64L-G16RevC.01  3-Jul-2019

 ----------------------------------------------------------------------
 #t hf aug-cc-pvdz iop(5/13=1,5/36=2,99/5=2) pseudo=read geom=check gue
 ss=(read,tcheck) scf=(maxcycle=1)
 ----------------------------------------------------------------------
 -----
 title
 -----
 Structure from the checkpoint file:  "Grambow2020_wb97xd3_008055_reverse_mol2.chk"
 Charge =  0 Multiplicity = 1

                         Standard orientation:
 ---------------------------------------------------------------------
 Center     Atomic      Atomic             Coordinates (Angstroms)
 Number     Number       Type             X           Y           Z
 ---------------------------------------------------------------------
      1          7           0        2.159864   -1.182058    0.474040
      2          6           0        1.637964   -0.287067   -0.020218
      3          6           0       -1.673686   -0.448434    0.302883
      4          6           0       -0.845617    0.711089    0.801344
      5          7           0       -0.103769    1.355983   -0.253749
      6          6           0        0.996679    0.869629   -0.623772
      7          7           0       -1.481298   -0.977627   -0.822346
      8          1           0       -2.429345   -0.793787    1.017380
      9          1           0       -1.515305    1.446169    1.252376
     10          1           0       -0.197865    0.325893    1.602074
     11          1           0        1.540049    1.335022   -1.441796
     12          1           0       -2.113156   -1.758676   -0.977066
 ---------------------------------------------------------------------

 SCF Done:  E(RHF) =  -318.030697933     A.U. after    2 cycles

 The electronic state is 1-A.
 Alpha  occ. eigenvalues --  -15.54348 -15.53450 -15.50908 -11.33815 -11.31003
 Alpha  occ. eigenvalues --  -11.29434 -11.29235  -1.29150  -1.25025  -1.22878
 Alpha  occ. eigenvalues --   -1.03993  -0.92576  -0.83167  -0.76449  -0.72720
 Alpha  occ. eigenvalues --   -0.70506  -0.64548  -0.62962  -0.59984  -0.55563
 Alpha  occ. eigenvalues --   -0.52533  -0.50879  -0.48178  -0.47076  -0.46104
 Alpha virt. eigenvalues --    0.02848   0.04199   0.04383   0.04530   0.05292
 Alpha virt. eigenvalues --    0.05677   0.08105   0.09709   0.10254   0.10747
 Alpha virt. eigenvalues --    0.12263   0.12935   0.13683   0.13933   0.14596

 Mulliken charges:
               1
     1  N    0.940252
     2  C   -1.427429
     3  C   -0.623911
     4  C   -0.725686
     5  N    0.938132
     6  C   -0.174231
     7  N    0.626157
     8  H   -0.129851
     9  H    0.071519
    10  H    0.332221
    11  H    0.008257
    12  H    0.164570
 Sum of Mulliken charges =  -0.00000

 Dipole moment (field-independent basis, Debye):
    X=             -2.4569    Y=              1.3855    Z=              1.0296  Tot=              3.0027

 Test job not archived.
 1\1\GINC-SE115\SP\RHF\Aug-CC-pVDZ\C4H5N3\OHZDE\09-Apr-2025\0\\#t hf au
 g-cc-pvdz iop(5/13=1,5/36=2,99/5=2) pseudo=read geom=check guess=(read
 ,tcheck) scf=(maxcycle=1)\\title\\0,1\N,0,1.4783298,-0.65722735,2.2924
 0571\C,0,0.47044393,-0.24897903,1.92473974\C,0,0.44143542,0.19476278,-
 1.37673187\C,0,-0.53967359,-0.69188917,-0.6487699\N,0,-1.31274599,0.02
 702016,0.33356365\C,0,-0.82310941,0.23774943,1.47386675\N,0,0.76441033
 ,1.33326829,-0.9493087\H,0,0.8565348,-0.2551021,-2.28563723\H,0,-1.225
 69246,-1.12311785,-1.38066701\H,0,0.03534859,-1.5215822,-0.21278122\H,

 Normal termination of Gaussian 16 at Wed Apr  9 18:46:27 2025.
