 Gaussian 16, Revision C.01,

 ----------------------------------------------------------------------
 #t hf aug-cc-pvdz symm=none int=(grid=ultrafine) guess=(read,tcheck) s
 table=(opt,rrhf)
 ----------------------------------------------------------------------
 -----
 title
 -----
 Symbolic Z-matrix:
 Charge =  0 Multiplicity = 1

 SCF Done:  E(RHF) =  -358.374615629     A.U. after   15 cycles
 Normal termination of Gaussian 16 at Wed Apr  9 17:42:20 2025.
 Gaussian 16:  ES64L-G16RevC.01  3-Jul-2019

 ----------------------------------------------------------------------
 #t hf aug-cc-pvdz iop(5/13=1,5/36=2,99/5=2) pseudo=read geom=check gue
 ss=(read,tcheck) scf=(maxcycle=1)
 ----------------------------------------------------------------------
 -----
 title
 -----
 Structure from the checkpoint file:  "Grambow2020_wb97xd3_006781_reverse_mol2.chk"
 Charge =  0 Multiplicity = 1

                         Standard orientation:
 ---------------------------------------------------------------------
 Center     Atomic      Atomic             Coordinates (Angstroms)
 Number     Number       Type             X           Y           Z
 ---------------------------------------------------------------------
      1          8           0       -1.577855    0.694591   -0.166546
      2          6           0       -0.328217    0.757450    0.534785
      3          6           0        0.864570    0.785723   -0.385586
      4          6           0        1.931939   -0.038284    0.201079
      5          7           0        0.866885   -0.716993   -0.533961
      6          6           0       -0.252078   -0.768147    0.420100
      7          8           0       -1.506507   -0.755999   -0.236306
      8          1           0       -0.384971    1.402352    1.410774
      9          1           0        1.005789    1.451373   -1.226706
     10          1           0        1.993743   -0.158794    1.279598
     11          1           0        2.883002   -0.065243   -0.313205
     12          1           0       -0.188152   -1.539931    1.187822
 ---------------------------------------------------------------------

 SCF Done:  E(RHF) =  -358.736519489     A.U. after    2 cycles

 The electronic state is 1-A.
 Alpha  occ. eigenvalues --  -20.61694 -20.61625 -15.52510 -11.34503 -11.32226
 Alpha  occ. eigenvalues --  -11.29116 -11.29040  -1.62231  -1.33123  -1.29072
 Alpha  occ. eigenvalues --   -1.02641  -0.95812  -0.87372  -0.76218  -0.74983
 Alpha  occ. eigenvalues --   -0.73565  -0.71440  -0.62936  -0.59913  -0.58655
 Alpha  occ. eigenvalues --   -0.56267  -0.53135  -0.50341  -0.48608  -0.43163
 Alpha  occ. eigenvalues --   -0.41703
 Alpha virt. eigenvalues --    0.03063   0.03841   0.04024   0.04802   0.05891
 Alpha virt. eigenvalues --    0.08763   0.09339   0.10237   0.10991   0.12725
 Alpha virt. eigenvalues --    0.13707   0.14336   0.14965   0.15285   0.15547

 Mulliken charges:
               1
     1  O   -0.946544
     2  C    0.884097
     3  C    0.145895
     4  C    0.095236
     5  N    0.366773
     6  C    0.806241
     7  O   -0.984345
     8  H   -0.018589
     9  H   -0.163468
    10  H   -0.083669
    11  H   -0.065866
    12  H   -0.035761
 Sum of Mulliken charges =  -0.00000

 Dipole moment (field-independent basis, Debye):
    X=              2.9941    Y=              1.6116    Z=              2.8169  Tot=              4.4155

 Test job not archived.
 1\1\GINC-SE041\SP\RHF\Aug-CC-pVDZ\C4H5N1O2\OHZDE\09-Apr-2025\0\\#t hf
 aug-cc-pvdz iop(5/13=1,5/36=2,99/5=2) pseudo=read geom=check guess=(re
 ad,tcheck) scf=(maxcycle=1)\\title\\0,1\O,0,1.35949254,-1.49714448,-0.
 29219473\C,0,0.67378494,-0.3066218,-0.70435377\C,0,0.62191379,0.747254
 43,0.37141489\C,0,-0.69700306,1.39635438,0.3318267\N,0,-0.58395321,0.1
 1414487,1.02351173\C,0,-0.59189186,-0.88086532,-0.06037927\O,0,0.14087
 812,-2.04239397,0.28386927\H,0,0.89030581,-0.05014236,-1.74060307\H,0,
 1.46257663,1.11726831,0.943158\H,0,-1.24807899,1.4489521,-0.60363811\H

 Normal termination of Gaussian 16 at Wed Apr  9 17:42:24 2025.
