 Gaussian 16, Revision C.01,

 ----------------------------------------------------------------------
 #t hf aug-cc-pvdz symm=none int=(grid=ultrafine) guess=(read,tcheck) s
 table=(opt,rrhf)
 ----------------------------------------------------------------------
 -----
 title
 -----
 Symbolic Z-matrix:
 Charge =  0 Multiplicity = 1

 SCF Done:  E(RHF) =  -343.606095773     A.U. after   15 cycles
 Normal termination of Gaussian 16 at Wed Apr  9 18:14:42 2025.
 Gaussian 16:  ES64L-G16RevC.01  3-Jul-2019

 ----------------------------------------------------------------------
 #t hf aug-cc-pvdz iop(5/13=1,5/36=2,99/5=2) pseudo=read geom=check gue
 ss=(read,tcheck) scf=(maxcycle=1)
 ----------------------------------------------------------------------
 -----
 title
 -----
 Structure from the checkpoint file:  "Grambow2020_wb97xd3_007228_reverse_mol2.chk"
 Charge =  0 Multiplicity = 1

                         Standard orientation:
 ---------------------------------------------------------------------
 Center     Atomic      Atomic             Coordinates (Angstroms)
 Number     Number       Type             X           Y           Z
 ---------------------------------------------------------------------
      1          8           0       -0.034050    1.579455   -0.556494
      2          6           0       -1.087326    1.173807    0.297703
      3          6           0       -1.029272   -0.305023    0.465589
      4          6           0        2.509383   -0.805812   -0.490542
      5          6           0        2.824170   -0.073482    0.564977
      6          6           0       -2.268672   -1.144772    0.476821
      7          8           0       -1.604151   -1.105553   -0.614889
      8          1           0       -0.087242    2.526739   -0.691615
      9          1           0       -2.063852    1.461965   -0.107930
     10          1           0       -0.984950    1.624640    1.293591
     11          1           0       -0.108312   -0.729249    0.849337
     12          1           0        2.986861   -1.759544   -0.685973
     13          1           0        1.759063   -0.471254   -1.198221
     14          1           0        2.339933    0.880003    0.744760
     15          1           0        3.574408   -0.392825    1.279827
 ---------------------------------------------------------------------

 SCF Done:  E(RHF) =  -343.954523115     A.U. after    2 cycles

 The electronic state is 1-A.
 Alpha  occ. eigenvalues --  -20.63664 -20.56950 -11.33946 -11.31344 -11.30988
 Alpha  occ. eigenvalues --  -11.23589 -11.23444  -1.59950  -1.47293  -1.03658
 Alpha  occ. eigenvalues --   -1.03469  -0.88832  -0.82421  -0.78968  -0.72140
 Alpha  occ. eigenvalues --   -0.71243  -0.66381  -0.64794  -0.62207  -0.59766
 Alpha  occ. eigenvalues --   -0.56183  -0.54128  -0.50819  -0.50494  -0.46806
 Alpha  occ. eigenvalues --   -0.39493  -0.38288
 Alpha virt. eigenvalues --    0.02857   0.03743   0.04425   0.04765   0.05745
 Alpha virt. eigenvalues --    0.06264   0.07415   0.08018   0.09494   0.09566
 Alpha virt. eigenvalues --    0.10096   0.10805   0.12246   0.13719   0.14235

 Mulliken charges:
               1
     1  O   -1.157502
     2  C    0.446597
     3  C    1.099741
     4  C    0.085252
     5  C    0.118736
     6  C   -0.078833
     7  O   -0.947789
     8  H    0.355874
     9  H    0.098902
    10  H    0.194336
    11  H   -0.016368
    12  H   -0.065027
    13  H   -0.011268
    14  H   -0.056371
    15  H   -0.066281
 Sum of Mulliken charges =  -0.00000

 Dipole moment (field-independent basis, Debye):
    X=              0.8441    Y=              2.7737    Z=              0.7626  Tot=              2.9979

 Test job not archived.
 1\1\GINC-SE114\SP\RHF\Aug-CC-pVDZ\C5H8O2\OHZDE\09-Apr-2025\0\\#t hf au
 g-cc-pvdz iop(5/13=1,5/36=2,99/5=2) pseudo=read geom=check guess=(read
 ,tcheck) scf=(maxcycle=1)\\title\\0,1\O,0,1.52694503,0.14242207,-0.685
 26709\C,0,1.27612605,-1.24628082,-0.57486659\C,0,0.20775717,-1.4638573
 2,0.43989574\C,0,-1.27528717,1.92494009,0.37916874\C,0,-1.59381195,1.6
 8561763,-0.8820945\C,0,0.27511926,-2.59002149,1.42408698\O,0,0.6253576
 6,-1.43314152,1.84112104\H,0,2.23560047,0.28386339,-1.31473957\H,0,2.1
 7999617,-1.7933419,-0.28345774\H,0,0.91843226,-1.66057952,-1.52667322\

 Normal termination of Gaussian 16 at Wed Apr  9 18:14:47 2025.
