 Gaussian 16, Revision C.01,

 ----------------------------------------------------------------------
 #t hf aug-cc-pvdz symm=none int=(grid=ultrafine) guess=(read,tcheck) s
 table=(opt,rrhf)
 ----------------------------------------------------------------------
 -----
 title
 -----
 Symbolic Z-matrix:
 Charge =  0 Multiplicity = 1

 SCF Done:  E(RHF) =  -306.543510795     A.U. after   15 cycles
 Normal termination of Gaussian 16 at Wed Apr  9 03:51:42 2025.
 Gaussian 16:  ES64L-G16RevC.01  3-Jul-2019

 ----------------------------------------------------------------------
 #t hf aug-cc-pvdz iop(5/13=1,5/36=2,99/5=2) pseudo=read geom=check gue
 ss=(read,tcheck) scf=(maxcycle=1)
 ----------------------------------------------------------------------
 -----
 title
 -----
 Structure from the checkpoint file:  "Grambow2020_wb97xd3_008178_reverse_mol1.chk"
 Charge =  0 Multiplicity = 1

                         Standard orientation:
 ---------------------------------------------------------------------
 Center     Atomic      Atomic             Coordinates (Angstroms)
 Number     Number       Type             X           Y           Z
 ---------------------------------------------------------------------
      1          6           0       -1.540708   -0.458215    0.166710
      2          6           0       -0.572221   -0.087402   -0.963706
      3          8           0       -0.175679    1.235390   -0.586223
      4          6           0        0.311357    0.991843    0.705287
      5          6           0        1.917055   -0.470609   -0.073227
      6          6           0        0.520779   -0.962442   -0.231600
      7          6           0       -0.250055   -0.417425    0.996289
      8          1           0       -2.336309    0.256905    0.376480
      9          1           0       -1.930280   -1.472078    0.082837
     10          1           0       -0.809200   -0.124833   -2.022914
     11          1           0        0.126894    1.833601    1.372938
     12          1           0        2.237262    0.070289   -0.983472
     13          1           0        1.475041    0.831011    0.702049
     14          1           0        0.454176   -2.031592   -0.433558
     15          1           0       -0.129398   -0.820918    1.996897
 ---------------------------------------------------------------------

 SCF Done:  E(RHF) =  -306.860025611     A.U. after    2 cycles

 The electronic state is 1-A.
 Alpha  occ. eigenvalues --  -20.55791 -11.31404 -11.29753 -11.27058 -11.25399
 Alpha  occ. eigenvalues --  -11.24999 -11.24155  -1.49859  -1.16263  -1.01650
 Alpha  occ. eigenvalues --   -0.96854  -0.83314  -0.80825  -0.76938  -0.73261
 Alpha  occ. eigenvalues --   -0.66894  -0.64039  -0.59077  -0.57194  -0.54048
 Alpha  occ. eigenvalues --   -0.53399  -0.50508  -0.48165  -0.44597  -0.41216
 Alpha  occ. eigenvalues --   -0.35127
 Alpha virt. eigenvalues --    0.03207   0.03306   0.03955   0.04208   0.05663
 Alpha virt. eigenvalues --    0.05899   0.06320   0.07996   0.08336   0.10517
 Alpha virt. eigenvalues --    0.11691   0.12493   0.13225   0.13581   0.13883

 Mulliken charges:
               1
     1  C    0.098422
     2  C    1.196807
     3  O   -1.472164
     4  C    0.378969
     5  C   -0.559545
     6  C    0.083228
     7  C   -0.022654
     8  H   -0.007908
     9  H   -0.020469
    10  H   -0.043912
    11  H   -0.030116
    12  H    0.186905
    13  H    0.417767
    14  H   -0.074325
    15  H   -0.131004
 Sum of Mulliken charges =  -0.00000

 Dipole moment (field-independent basis, Debye):
    X=             -1.9527    Y=             -0.7457    Z=             -0.1328  Tot=              2.0944

 Test job not archived.
 1\1\GINC-SE123\SP\RHF\Aug-CC-pVDZ\C6H8O1\OHZDE\09-Apr-2025\0\\#t hf au
 g-cc-pvdz iop(5/13=1,5/36=2,99/5=2) pseudo=read geom=check guess=(read
 ,tcheck) scf=(maxcycle=1)\\title\\0,1\C,0,-1.52941311,-0.12583519,-0.2
 6106525\C,0,-0.57705365,-0.5312443,0.87117394\O,0,0.26668079,-1.484198
 83,0.21580555\C,0,0.73571851,-0.70944545,-0.85390343\C,0,1.69662713,0.
 83692594,0.56331425\C,0,0.20870091,0.81427,0.60944449\C,0,-0.24356582,
 0.48493273,-0.8348312\H,0,-2.02144113,-0.9394451,-0.79429038\H,0,-2.24
 168017,0.64443972,0.0323121\H,0,-0.88875798,-0.90483141,1.84212947\H,0

 Normal termination of Gaussian 16 at Wed Apr  9 03:51:47 2025.
