 Gaussian 16, Revision C.01,

 ----------------------------------------------------------------------
 #t hf aug-cc-pvdz symm=none int=(grid=ultrafine) guess=(read,tcheck) s
 table=(opt,rrhf)
 ----------------------------------------------------------------------
 -----
 title
 -----
 Symbolic Z-matrix:
 Charge =  0 Multiplicity = 1

 SCF Done:  E(RHF) =  -308.924847688     A.U. after   15 cycles

 1\1\GINC-SE340\Stability\RHF\Aug-CC-pVDZ\C6H12O1\OHZDE\09-Apr-2025\0\\
 #t hf aug-cc-pvdz symm=none int=(grid=ultrafine) guess=(read,tcheck) s
 table=(opt,rrhf)\\title\\0,1\C,0,-0.71815517,-1.68586979,-0.66791207\C
 ,0,-0.73132333,-0.16902126,-0.5074154\C,0,-1.27942015,0.29872645,0.816
 79161\C,0,0.22837714,1.98104004,0.93270566\O,0,0.51464748,1.81325081,-
 0.36746234\C,0,0.69369857,0.45082846,-0.70446478\C,0,1.79486624,-0.229
 85937,0.08910801\H,0,-1.73459829,-2.08121465,-0.681575\H,0,-0.23359446
 ,-1.98311375,-1.60170334\H,0,-0.18703164,-2.16933926,0.15486811\H,0,-1

 Normal termination of Gaussian 16 at Wed Apr  9 17:37:49 2025.
 Gaussian 16:  ES64L-G16RevC.01  3-Jul-2019

 ----------------------------------------------------------------------
 #t hf aug-cc-pvdz iop(5/13=1,5/36=2,99/5=2) pseudo=read geom=check gue
 ss=(read,tcheck) scf=(maxcycle=1)
 ----------------------------------------------------------------------
 -----
 title
 -----
 Structure from the checkpoint file:  "Grambow2020_wb97xd3_006742_forward_mol1.chk"
 Charge =  0 Multiplicity = 1

                         Standard orientation:
 ---------------------------------------------------------------------
 Center     Atomic      Atomic             Coordinates (Angstroms)
 Number     Number       Type             X           Y           Z
 ---------------------------------------------------------------------
      1          6           0        2.206380   -0.013543   -0.077433
      2          6           0        0.796315   -0.466588   -0.442440
      3          6           0        0.227829   -1.502555    0.493678
      4          6           0       -1.839757   -0.593869    0.365436
      5          8           0       -1.459770    0.117947   -0.706697
      6          6           0       -0.202002    0.738089   -0.518899
      7          6           0       -0.159569    1.671744    0.677827
      8          1           0        2.914693   -0.836608   -0.179885
      9          1           0        2.544277    0.798234   -0.727019
     10          1           0        2.257234    0.339051    0.954989
     11          1           0        0.817589   -0.876553   -1.454530
     12          1           0        0.740745   -1.588570    1.452984
     13          1           0        0.042635   -2.481398    0.065813
     14          1           0       -0.893246   -0.925259    1.058599
     15          1           0       -2.444822   -1.438515    0.006652
     16          1           0       -0.021093    1.307132   -1.432596
     17          1           0       -0.169704    1.139692    1.628902
     18          1           0        0.740826    2.285794    0.637332
     19          1           0       -1.026148    2.333748    0.653319
 ---------------------------------------------------------------------

 SCF Done:  E(RHF) =  -309.255871701     A.U. after    2 cycles

 The electronic state is 1-A.
 Alpha  occ. eigenvalues --  -20.56606 -11.29359 -11.29029 -11.24727 -11.24255
 Alpha  occ. eigenvalues --  -11.23262 -11.22640  -1.50518  -1.09911  -1.01440
 Alpha  occ. eigenvalues --   -0.95165  -0.91807  -0.81626  -0.76935  -0.70376
 Alpha  occ. eigenvalues --   -0.65742  -0.64046  -0.61534  -0.58754  -0.56923
 Alpha  occ. eigenvalues --   -0.55325  -0.53979  -0.53002  -0.51613  -0.49607
 Alpha  occ. eigenvalues --   -0.47372  -0.44622  -0.29030
 Alpha virt. eigenvalues --    0.03321   0.03564   0.03628   0.04288   0.05909
 Alpha virt. eigenvalues --    0.06070   0.06208   0.06488   0.07247   0.09447
 Alpha virt. eigenvalues --    0.09619   0.10145   0.11366   0.12573   0.13046

 Mulliken charges:
               1
     1  C   -0.199742
     2  C   -0.574741
     3  C   -0.433784
     4  C    0.048695
     5  O   -1.383269
     6  C    0.764369
     7  C   -0.190465
     8  H    0.117233
     9  H    0.191007
    10  H    0.241091
    11  H    0.149677
    12  H    0.010509
    13  H    0.035837
    14  H    0.751830
    15  H   -0.090388
    16  H    0.013899
    17  H    0.219194
    18  H    0.180492
    19  H    0.148556
 Sum of Mulliken charges =  -0.00000

 Dipole moment (field-independent basis, Debye):
    X=              2.0505    Y=             -0.1497    Z=             -0.2711  Tot=              2.0737

 Test job not archived.
 1\1\GINC-SE340\SP\RHF\Aug-CC-pVDZ\C6H12O1\OHZDE\09-Apr-2025\0\\#t hf a
 ug-cc-pvdz iop(5/13=1,5/36=2,99/5=2) pseudo=read geom=check guess=(rea
 d,tcheck) scf=(maxcycle=1)\\title\\0,1\C,0,-0.71815517,-1.68586979,-0.
 66791207\C,0,-0.73132333,-0.16902126,-0.5074154\C,0,-1.27942015,0.2987
 2645,0.81679161\C,0,0.22837714,1.98104004,0.93270566\O,0,0.51464748,1.
 81325081,-0.36746234\C,0,0.69369857,0.45082846,-0.70446478\C,0,1.79486
 624,-0.22985937,0.08910801\H,0,-1.73459829,-2.08121465,-0.681575\H,0,-
 0.23359446,-1.98311375,-1.60170334\H,0,-0.18703164,-2.16933926,0.15486

 Normal termination of Gaussian 16 at Wed Apr  9 17:37:55 2025.
