 Gaussian 16, Revision C.01,

 ----------------------------------------------------------------------
 #t hf aug-cc-pvdz symm=none int=(grid=ultrafine) guess=(read,tcheck) s
 table=(opt,rrhf)
 ----------------------------------------------------------------------
 -----
 title
 -----
 Symbolic Z-matrix:
 Charge =  0 Multiplicity = 1

 SCF Done:  E(RHF) =  -320.244417083     A.U. after   17 cycles
 Normal termination of Gaussian 16 at Wed Apr  9 18:30:05 2025.
 Gaussian 16:  ES64L-G16RevC.01  3-Jul-2019

 ----------------------------------------------------------------------
 #t hf aug-cc-pvdz iop(5/13=1,5/36=2,99/5=2) pseudo=read geom=check gue
 ss=(read,tcheck) scf=(maxcycle=1)
 ----------------------------------------------------------------------
 -----
 title
 -----
 Structure from the checkpoint file:  "Grambow2020_wb97xd3_007653_reverse_mol2.chk"
 Charge =  0 Multiplicity = 1

                         Standard orientation:
 ---------------------------------------------------------------------
 Center     Atomic      Atomic             Coordinates (Angstroms)
 Number     Number       Type             X           Y           Z
 ---------------------------------------------------------------------
      1          7           0       -1.622123   -0.653589   -0.014008
      2          6           0       -0.429068   -1.293502    0.007142
      3          6           0        0.772311   -1.401912    0.014279
      4          6           0       -1.381796    0.596421   -0.007392
      5          8           0       -0.220306    1.299743    0.024608
      6          6           0        1.146791    0.934550   -0.009378
      7          6           0        1.697151   -0.271683   -0.007362
      8          1           0       -2.207229    1.300294   -0.022112
      9          1           0        1.717734    1.852402   -0.031799
     10          1           0        2.774475   -0.358765   -0.028637
 ---------------------------------------------------------------------

 SCF Done:  E(RHF) =  -320.564366528     A.U. after    2 cycles

 The electronic state is 1-A.
 Alpha  occ. eigenvalues --  -20.62381 -15.54617 -11.40182 -11.33575 -11.29126
 Alpha  occ. eigenvalues --  -11.28394 -11.23188  -1.54760  -1.29871  -1.12656
 Alpha  occ. eigenvalues --   -1.01091  -0.96244  -0.84299  -0.77011  -0.74600
 Alpha  occ. eigenvalues --   -0.67684  -0.66492  -0.60885  -0.57821  -0.55174
 Alpha  occ. eigenvalues --   -0.54900  -0.47134  -0.39176  -0.32875
 Alpha virt. eigenvalues --    0.03070   0.03815   0.04474   0.05141   0.07612
 Alpha virt. eigenvalues --    0.08464   0.09040   0.09863   0.11534   0.12162
 Alpha virt. eigenvalues --    0.12302   0.13182   0.13294   0.14774   0.15288

 Mulliken charges:
               1
     1  N    1.030762
     2  C   -1.499214
     3  C    0.496802
     4  C    0.196616
     5  O   -1.348530
     6  C    1.035781
     7  C    0.330397
     8  H   -0.019785
     9  H   -0.129574
    10  H   -0.093254
 Sum of Mulliken charges =  -0.00000

 Dipole moment (field-independent basis, Debye):
    X=              0.8595    Y=              3.3058    Z=             -0.0682  Tot=              3.4164

 Test job not archived.
 1\1\GINC-SE362\SP\RHF\Aug-CC-pVDZ\C5H3N1O1\OHZDE\09-Apr-2025\0\\#t hf
 aug-cc-pvdz iop(5/13=1,5/36=2,99/5=2) pseudo=read geom=check guess=(re
 ad,tcheck) scf=(maxcycle=1)\\title\\0,1\N,0,-0.10296185,0.4804894,1.97
 473083\C,0,0.89087077,-0.20296763,1.35950841\C,0,1.47343196,-0.7314678
 8,0.4449458\C,0,-0.9596709,0.78675737,1.08446358\O,0,-1.00422662,0.556
 16786,-0.25329136\C,0,-0.17641328,-0.1585715,-1.1518159\C,0,0.97730022
 ,-0.77242512,-0.92814926\H,0,-1.84768854,1.34323839,1.36508448\H,0,-0.
 65604057,-0.12102183,-2.12005142\H,0,1.47834781,-1.26665605,-1.7487291

 Normal termination of Gaussian 16 at Wed Apr  9 18:30:09 2025.
