 Gaussian 16, Revision C.01,

 ----------------------------------------------------------------------
 #t hf aug-cc-pvdz symm=none int=(grid=ultrafine) guess=(read,tcheck) s
 table=(opt,rrhf)
 ----------------------------------------------------------------------
 -----
 title
 -----
 Symbolic Z-matrix:
 Charge =  0 Multiplicity = 1

 SCF Done:  E(RHF) =  -307.610643762     A.U. after   16 cycles

 1\1\GINC-SE041\Stability\RHF\Aug-CC-pVDZ\C6H10O1\OHZDE\09-Apr-2025\0\\
 #t hf aug-cc-pvdz symm=none int=(grid=ultrafine) guess=(read,tcheck) s
 table=(opt,rrhf)\\title\\0,1\C,0,1.80228382,-0.72874605,0.0699468\C,0,
 0.83247389,0.37038183,0.45370199\C,0,0.11477903,1.04936942,-0.68242772
 \C,0,-1.59635345,0.59566012,0.51215492\O,0,-2.29216185,-0.11404637,-0.
 37119961\C,0,-1.20184061,-0.88350124,-0.83035547\C,0,-0.43063818,0.013
 86724,1.15094611\H,0,2.14043476,-1.28747596,0.94505647\H,0,2.68195499,
 -0.31749814,-0.43075939\H,0,1.31323299,-1.43295381,-0.60885154\H,0,1.3

 Normal termination of Gaussian 16 at Wed Apr  9 19:04:08 2025.
 Gaussian 16:  ES64L-G16RevC.01  3-Jul-2019

 ----------------------------------------------------------------------
 #t hf aug-cc-pvdz iop(5/13=1,5/36=2,99/5=2) pseudo=read geom=check gue
 ss=(read,tcheck) scf=(maxcycle=1)
 ----------------------------------------------------------------------
 -----
 title
 -----
 Structure from the checkpoint file:  "Grambow2020_wb97xd3_008493_forward_mol1.chk"
 Charge =  0 Multiplicity = 1

                         Standard orientation:
 ---------------------------------------------------------------------
 Center     Atomic      Atomic             Coordinates (Angstroms)
 Number     Number       Type             X           Y           Z
 ---------------------------------------------------------------------
      1          6           0        2.182330    0.536618   -0.325776
      2          6           0        1.184830   -0.527892    0.083728
      3          6           0        0.312702   -0.200936    1.266687
      4          6           0       -1.235379   -0.789985   -0.081394
      5          8           0       -1.967591    0.319851   -0.064782
      6          6           0       -0.880069    1.212873   -0.171994
      7          6           0        0.024947   -0.814970   -0.799992
      8          1           0        2.643393    0.303964   -1.287876
      9          1           0        2.977704    0.634289    0.416851
     10          1           0        1.675581    1.500929   -0.421463
     11          1           0        1.739152   -1.465696    0.260649
     12          1           0        0.088704   -1.053113    1.905164
     13          1           0        0.500551    0.687378    1.864091
     14          1           0       -1.883101   -1.674405   -0.007532
     15          1           0       -0.838127    1.904255    0.662059
     16          1           0       -0.838649    1.709788   -1.138532
     17          1           0        0.139352   -1.600454   -1.562703
 ---------------------------------------------------------------------

 SCF Done:  E(RHF) =  -307.933752866     A.U. after    2 cycles

 The electronic state is 1-A.
 Alpha  occ. eigenvalues --  -20.57068 -11.33771 -11.30525 -11.25321 -11.25128
 Alpha  occ. eigenvalues --  -11.23748 -11.22106  -1.52151  -1.11699  -0.98514
 Alpha  occ. eigenvalues --   -0.93381  -0.89478  -0.83158  -0.72599  -0.70574
 Alpha  occ. eigenvalues --   -0.66564  -0.64734  -0.63156  -0.60851  -0.56957
 Alpha  occ. eigenvalues --   -0.54208  -0.51098  -0.50118  -0.47437  -0.47025
 Alpha  occ. eigenvalues --   -0.30451  -0.29626
 Alpha virt. eigenvalues --    0.03099   0.03544   0.03741   0.03968   0.05649
 Alpha virt. eigenvalues --    0.05935   0.06319   0.06742   0.06901   0.07875
 Alpha virt. eigenvalues --    0.09304   0.10455   0.12301   0.13293   0.13717

 Mulliken charges:
               1
     1  C   -0.345018
     2  C   -0.345955
     3  C    0.024601
     4  C    1.098568
     5  O   -1.239814
     6  C    0.393890
     7  C    0.113134
     8  H    0.149793
     9  H    0.185978
    10  H    0.220877
    11  H    0.079738
    12  H   -0.010995
    13  H   -0.107784
    14  H   -0.068561
    15  H   -0.018191
    16  H   -0.048378
    17  H   -0.081882
 Sum of Mulliken charges =   0.00000

 Dipole moment (field-independent basis, Debye):
    X=              0.8505    Y=             -0.5574    Z=              0.1880  Tot=              1.0341

 Test job not archived.
 1\1\GINC-SE041\SP\RHF\Aug-CC-pVDZ\C6H10O1\OHZDE\09-Apr-2025\0\\#t hf a
 ug-cc-pvdz iop(5/13=1,5/36=2,99/5=2) pseudo=read geom=check guess=(rea
 d,tcheck) scf=(maxcycle=1)\\title\\0,1\C,0,1.80228382,-0.72874605,0.06
 99468\C,0,0.83247389,0.37038183,0.45370199\C,0,0.11477903,1.04936942,-
 0.68242772\C,0,-1.59635345,0.59566012,0.51215492\O,0,-2.29216185,-0.11
 404637,-0.37119961\C,0,-1.20184061,-0.88350124,-0.83035547\C,0,-0.4306
 3818,0.01386724,1.15094611\H,0,2.14043476,-1.28747596,0.94505647\H,0,2
 .68195499,-0.31749814,-0.43075939\H,0,1.31323299,-1.43295381,-0.608851

 Normal termination of Gaussian 16 at Wed Apr  9 19:04:15 2025.
