 Gaussian 16, Revision C.01,

 ----------------------------------------------------------------------
 #t hf aug-cc-pvdz symm=none int=(grid=ultrafine) guess=(read,tcheck) s
 table=(opt,rrhf)
 ----------------------------------------------------------------------
 -----
 title
 -----
 Symbolic Z-matrix:
 Charge =  0 Multiplicity = 1

 SCF Done:  E(RHF) =  -286.906033052     A.U. after   14 cycles
 Normal termination of Gaussian 16 at Wed Apr  9 19:07:02 2025.
 Gaussian 16:  ES64L-G16RevC.01  3-Jul-2019

 ----------------------------------------------------------------------
 #t hf aug-cc-pvdz iop(5/13=1,5/36=2,99/5=2) pseudo=read geom=check gue
 ss=(read,tcheck) scf=(maxcycle=1)
 ----------------------------------------------------------------------
 -----
 title
 -----
 Structure from the checkpoint file:  "Grambow2020_wb97xd3_008584_reverse_mol2.chk"
 Charge =  0 Multiplicity = 1

                         Standard orientation:
 ---------------------------------------------------------------------
 Center     Atomic      Atomic             Coordinates (Angstroms)
 Number     Number       Type             X           Y           Z
 ---------------------------------------------------------------------
      1          6           0        2.299163   -0.546413    0.473390
      2          6           0        1.164041   -0.097742   -0.440047
      3          6           0       -0.081639   -0.921996   -0.343663
      4          6           0       -1.099605   -0.118169   -0.022347
      5          6           0       -2.540172   -0.439904    0.195224
      6          6           0       -0.504650    1.226111    0.089222
      7          7           0        0.751294    1.267396   -0.133162
      8          1           0        1.969972   -0.542345    1.513924
      9          1           0        2.623717   -1.556035    0.216126
     10          1           0        3.146970    0.130860    0.375238
     11          1           0       -0.123942   -1.991126   -0.507799
     12          1           0       -2.856901   -0.157700    1.202234
     13          1           0       -2.730563   -1.505321    0.066324
     14          1           0       -3.174879    0.105697   -0.507146
     15          1           0       -1.063026    2.125602    0.338986
     16          1           0        1.526765   -0.092720   -1.476424
 ---------------------------------------------------------------------

 SCF Done:  E(RHF) =  -287.211436522     A.U. after    2 cycles

 The electronic state is 1-A.
 Alpha  occ. eigenvalues --  -15.48683 -11.27356 -11.25955 -11.24411 -11.24286
 Alpha  occ. eigenvalues --  -11.23792 -11.22720  -1.26194  -1.07249  -1.03602
 Alpha  occ. eigenvalues --   -0.95440  -0.88625  -0.78002  -0.75665  -0.68488
 Alpha  occ. eigenvalues --   -0.63570  -0.59658  -0.59344  -0.58086  -0.55325
 Alpha  occ. eigenvalues --   -0.54512  -0.53339  -0.49314  -0.44942  -0.44650
 Alpha  occ. eigenvalues --   -0.35992
 Alpha virt. eigenvalues --    0.03364   0.03633   0.04077   0.04425   0.05270
 Alpha virt. eigenvalues --    0.05789   0.06272   0.06776   0.08390   0.09106
 Alpha virt. eigenvalues --    0.11505   0.11972   0.12606   0.13041   0.13887

 Mulliken charges:
               1
     1  C   -0.109560
     2  C   -1.635168
     3  C    0.573813
     4  C    0.783374
     5  C   -0.555389
     6  C   -0.968533
     7  N    0.962335
     8  H    0.217872
     9  H    0.202708
    10  H    0.173388
    11  H   -0.175904
    12  H    0.243603
    13  H    0.120878
    14  H    0.246082
    15  H   -0.202622
    16  H    0.123123
 Sum of Mulliken charges =  -0.00000

 Dipole moment (field-independent basis, Debye):
    X=             -1.8984    Y=             -2.0676    Z=              0.0450  Tot=              2.8073

 Test job not archived.
 1\1\GINC-SE174\SP\RHF\Aug-CC-pVDZ\C6H9N1\OHZDE\09-Apr-2025\0\\#t hf au
 g-cc-pvdz iop(5/13=1,5/36=2,99/5=2) pseudo=read geom=check guess=(read
 ,tcheck) scf=(maxcycle=1)\\title\\0,1\C,0,2.36774256,-0.18231038,0.367
 36906\C,0,1.18850945,0.19481924,-0.52221348\C,0,0.01104157,-0.72424473
 ,-0.42580431\C,0,-1.06065133,-0.00701352,-0.07553085\C,0,-2.4690883,-0
 .44233395,0.15443705\C,0,-0.56868909,1.37665361,0.05464502\N,0,0.67706
 329,1.5183216,-0.18323482\H,0,2.05432446,-0.22284493,1.41198383\H,0,2.
 76479399,-1.15909568,0.08612607\H,0,3.15975947,0.55973198,0.2714924\H,

 Normal termination of Gaussian 16 at Wed Apr  9 19:07:08 2025.
