 Gaussian 16, Revision C.01,

 ----------------------------------------------------------------------
 #t hf aug-cc-pvdz symm=none int=(grid=ultrafine) guess=(read,tcheck) s
 table=(opt,rrhf)
 ----------------------------------------------------------------------
 -----
 title
 -----
 Symbolic Z-matrix:
 Charge =  0 Multiplicity = 1

 SCF Done:  E(RHF) =  -306.806710105     A.U. after   16 cycles

 1\1\GINC-SE219\Stability\RHF\Aug-CC-pVDZ\C4H10O2\OHZDE\09-Apr-2025\0\\
 #t hf aug-cc-pvdz symm=none int=(grid=ultrafine) guess=(read,tcheck) s
 table=(opt,rrhf)\\title\\0,1\C,0,2.05393413,0.79378929,-0.68985289\O,0
 ,0.71015153,0.37550718,-0.88268141\C,0,0.41555943,-0.88054653,-0.25208
 206\C,0,-1.08566271,-1.00719671,-0.19722571\C,0,-1.48566279,0.39754163
 ,1.32893224\O,0,-1.86245884,0.60887072,-0.2329845\H,0,2.76554488,0.075
 58151,-1.13345452\H,0,2.16021823,1.76129011,-1.19427656\H,0,2.28779347
 ,0.9108363,0.38215699\H,0,0.84176586,-0.9157701,0.75790059\H,0,0.83407

 Normal termination of Gaussian 16 at Wed Apr  9 15:48:59 2025.
 Gaussian 16:  ES64L-G16RevC.01  3-Jul-2019

 ----------------------------------------------------------------------
 #t hf aug-cc-pvdz iop(5/13=1,5/36=2,99/5=2) pseudo=read geom=check gue
 ss=(read,tcheck) scf=(maxcycle=1)
 ----------------------------------------------------------------------
 -----
 title
 -----
 Structure from the checkpoint file:  "Grambow2020_b97d3_006774_reverse_mol1.chk"
 Charge =  0 Multiplicity = 1

                         Standard orientation:
 ---------------------------------------------------------------------
 Center     Atomic      Atomic             Coordinates (Angstroms)
 Number     Number       Type             X           Y           Z
 ---------------------------------------------------------------------
      1          6           0       -2.336270   -0.543362    0.110296
      2          8           0       -1.100484   -0.093789   -0.426928
      3          6           0       -0.489681    0.942753    0.357045
      4          6           0        0.947925    1.043788   -0.085446
      5          6           0        1.695815   -0.724051    0.796513
      6          8           0        1.504949   -0.504972   -0.797787
      7          1           0       -3.081071    0.271116    0.140173
      8          1           0       -2.699972   -1.337186   -0.552549
      9          1           0       -2.207851   -0.946073    1.129574
     10          1           0       -0.547310    0.704196    1.426029
     11          1           0       -1.010761    1.901388    0.146207
     12          1           0        1.016222    1.510001   -1.085814
     13          1           0        1.589324    1.575511    0.613850
     14          1           0        2.788374   -0.620081    0.879176
     15          1           0        1.441519   -1.785862    0.967643
     16          1           0        0.569077   -0.797692   -0.937016
 ---------------------------------------------------------------------

 SCF Done:  E(RHF) =  -307.129040771     A.U. after    2 cycles

 The electronic state is 1-A.
 Alpha  occ. eigenvalues --  -20.57226 -20.57216 -11.34956 -11.31254 -11.30106
 Alpha  occ. eigenvalues --  -11.20570  -1.48448  -1.42721  -1.05196  -0.93837
 Alpha  occ. eigenvalues --   -0.85000  -0.84246  -0.70533  -0.69263  -0.67027
 Alpha  occ. eigenvalues --   -0.62150  -0.61836  -0.58348  -0.55447  -0.54319
 Alpha  occ. eigenvalues --   -0.51818  -0.49969  -0.46928  -0.44080  -0.27302
 Alpha virt. eigenvalues --    0.03119   0.03504   0.04242   0.04784   0.06125
 Alpha virt. eigenvalues --    0.06302   0.06507   0.07557   0.08932   0.09266
 Alpha virt. eigenvalues --    0.11314   0.11886   0.13090   0.14533   0.14757

 Mulliken charges:
               1
     1  C    0.174369
     2  O   -1.292000
     3  C    0.648516
     4  C    0.151600
     5  C   -0.005936
     6  O   -1.145735
     7  H    0.190772
     8  H    0.000603
     9  H    0.175647
    10  H    0.202931
    11  H    0.111758
    12  H   -0.003945
    13  H    0.280752
    14  H   -0.030848
    15  H   -0.097382
    16  H    0.638896
 Sum of Mulliken charges =  -0.00000

 Dipole moment (field-independent basis, Debye):
    X=             -3.0895    Y=              2.0318    Z=             -0.0942  Tot=              3.6989

 Test job not archived.
 1\1\GINC-SE219\SP\RHF\Aug-CC-pVDZ\C4H10O2\OHZDE\09-Apr-2025\0\\#t hf a
 ug-cc-pvdz iop(5/13=1,5/36=2,99/5=2) pseudo=read geom=check guess=(rea
 d,tcheck) scf=(maxcycle=1)\\title\\0,1\C,0,2.05393413,0.79378929,-0.68
 985289\O,0,0.71015153,0.37550718,-0.88268141\C,0,0.41555943,-0.8805465
 3,-0.25208206\C,0,-1.08566271,-1.00719671,-0.19722571\C,0,-1.48566279,
 0.39754163,1.32893224\O,0,-1.86245884,0.60887072,-0.2329845\H,0,2.7655
 4488,0.07558151,-1.13345452\H,0,2.16021823,1.76129011,-1.19427656\H,0,
 2.28779347,0.9108363,0.38215699\H,0,0.84176586,-0.9157701,0.75790059\H

 Normal termination of Gaussian 16 at Wed Apr  9 15:49:05 2025.
