 Gaussian 16, Revision C.01,

 ----------------------------------------------------------------------
 #t hf aug-cc-pvdz symm=none int=(grid=ultrafine) guess=(read,tcheck) s
 table=(opt,rrhf)
 ----------------------------------------------------------------------
 -----
 title
 -----
 Symbolic Z-matrix:
 Charge =  0 Multiplicity = 1

 SCF Done:  E(RHF) =  -337.442057816     A.U. after   17 cycles
 Normal termination of Gaussian 16 at Wed Apr  9 04:05:02 2025.
 Gaussian 16:  ES64L-G16RevC.01  3-Jul-2019

 ----------------------------------------------------------------------
 #t hf aug-cc-pvdz iop(5/13=1,5/36=2,99/5=2) pseudo=read geom=check gue
 ss=(read,tcheck) scf=(maxcycle=1)
 ----------------------------------------------------------------------
 -----
 title
 -----
 Structure from the checkpoint file:  "Grambow2020_wb97xd3_009182_forward_mol1.chk"
 Charge =  0 Multiplicity = 1

                         Standard orientation:
 ---------------------------------------------------------------------
 Center     Atomic      Atomic             Coordinates (Angstroms)
 Number     Number       Type             X           Y           Z
 ---------------------------------------------------------------------
      1          8           0       -2.135003   -0.262392   -0.457142
      2          6           0       -1.060784   -0.422434   -0.018576
      3          6           0       -0.428304    1.442435    0.458666
      4          6           0        0.677539    1.664665   -0.026898
      5          7           0        1.652842   -0.178435   -0.555117
      6          6           0        1.152777   -1.051967    0.247190
      7          7           0       -0.169535   -1.231034    0.373122
      8          1           0       -1.312554    1.815413    0.931387
      9          1           0        1.540059    2.167248   -0.399857
     10          1           0        2.662733   -0.128004   -0.457635
     11          1           0        1.759276   -1.685436    0.894909
 ---------------------------------------------------------------------

 SCF Done:  E(RHF) =  -337.777435971     A.U. after    2 cycles

 The electronic state is 1-A.
 Alpha  occ. eigenvalues --  -20.57952 -15.51398 -15.51308 -11.42395 -11.34523
 Alpha  occ. eigenvalues --  -11.30922 -11.25435  -1.53372  -1.30496  -1.19780
 Alpha  occ. eigenvalues --   -1.06646  -0.95171  -0.80880  -0.76383  -0.73763
 Alpha  occ. eigenvalues --   -0.72053  -0.69924  -0.66178  -0.62409  -0.55322
 Alpha  occ. eigenvalues --   -0.52442  -0.49183  -0.43928  -0.42569  -0.38737
 Alpha virt. eigenvalues --    0.02715   0.03906   0.04291   0.05183   0.07474
 Alpha virt. eigenvalues --    0.08115   0.08743   0.10176   0.10665   0.11207
 Alpha virt. eigenvalues --    0.12431   0.12572   0.13420   0.13990   0.14830

 Mulliken charges:
               1
     1  O   -0.937539
     2  C    0.348741
     3  C    0.160418
     4  C    0.364877
     5  N    0.474673
     6  C   -0.920012
     7  N    0.795029
     8  H   -0.111125
     9  H   -0.221860
    10  H    0.102706
    11  H   -0.055908
 Sum of Mulliken charges =  -0.00000

 Dipole moment (field-independent basis, Debye):
    X=              3.3205    Y=              1.9209    Z=              1.4960  Tot=              4.1174

 Test job not archived.
 1\1\GINC-SE174\SP\RHF\Aug-CC-pVDZ\C4H4N2O1\OHZDE\09-Apr-2025\0\\#t hf
 aug-cc-pvdz iop(5/13=1,5/36=2,99/5=2) pseudo=read geom=check guess=(re
 ad,tcheck) scf=(maxcycle=1)\\title\\0,1\O,0,2.2385406,-1.15611621,0.74
 626768\C,0,1.19254178,-1.01492369,0.23847698\C,0,1.17997231,0.9209096,
 -0.359788\C,0,0.16719984,1.49210683,0.03527311\N,0,-1.34674868,0.05970
 451,0.56765586\C,0,-1.08917891,-0.97052399,-0.15974147\N,0,0.12240813,
 -1.54320924,-0.18260953\H,0,2.1606667,0.98354179,-0.7826232\H,0,-0.523
 08398,2.25088699,0.32404582\H,0,-2.28722139,0.40302343,0.39569972\H,0,

 Normal termination of Gaussian 16 at Wed Apr  9 04:05:06 2025.
