 Gaussian 16, Revision C.01,

 ----------------------------------------------------------------------
 #t hf aug-cc-pvdz symm=none int=(grid=ultrafine) guess=(read,tcheck) s
 table=(opt,rrhf)
 ----------------------------------------------------------------------
 -----
 title
 -----
 Symbolic Z-matrix:
 Charge =  0 Multiplicity = 1

 SCF Done:  E(RHF) =  -245.685192840     A.U. after   15 cycles
 Normal termination of Gaussian 16 at Wed Apr  9 16:18:38 2025.
 Gaussian 16:  ES64L-G16RevC.01  3-Jul-2019

 ----------------------------------------------------------------------
 #t hf aug-cc-pvdz iop(5/13=1,5/36=2,99/5=2) pseudo=read geom=check gue
 ss=(read,tcheck) scf=(maxcycle=1)
 ----------------------------------------------------------------------
 -----
 title
 -----
 Structure from the checkpoint file:  "Grambow2020_b97d3_007202_forward_mol1.chk"
 Charge =  0 Multiplicity = 1

                         Standard orientation:
 ---------------------------------------------------------------------
 Center     Atomic      Atomic             Coordinates (Angstroms)
 Number     Number       Type             X           Y           Z
 ---------------------------------------------------------------------
      1          8           0       -1.734280   -0.616150    0.180756
      2          6           0       -1.218446    0.471204    0.008763
      3          6           0        0.268137    0.680554   -0.180574
      4          6           0        1.752601   -0.207470    0.585508
      5          7           0        0.987007   -0.545010   -0.573362
      6          1           0       -1.809132    1.413866   -0.024808
      7          1           0        0.537645    1.566746   -0.761684
      8          1           0        2.470341    0.573690    0.226555
      9          1           0        0.603160    0.839631    0.970848
     10          1           0        0.349426   -1.315392   -0.325606
 ---------------------------------------------------------------------

 SCF Done:  E(RHF) =  -245.936114875     A.U. after    2 cycles

 The electronic state is 1-A.
 Alpha  occ. eigenvalues --  -20.58004 -15.53201 -11.38135 -11.33276 -11.30687
 Alpha  occ. eigenvalues --   -1.50300  -1.28200  -1.01007  -0.89073  -0.81660
 Alpha  occ. eigenvalues --   -0.73426  -0.68853  -0.65535  -0.62040  -0.58822
 Alpha  occ. eigenvalues --   -0.55826  -0.48809  -0.45540  -0.37634
 Alpha virt. eigenvalues --    0.02733   0.04083   0.04720   0.05833   0.06524
 Alpha virt. eigenvalues --    0.07136   0.09612   0.10350   0.11207   0.12303
 Alpha virt. eigenvalues --    0.13113   0.14431   0.14828   0.15368   0.16532

 Mulliken charges:
               1
     1  O   -1.139848
     2  C    1.147825
     3  C   -0.966606
     4  C   -0.559899
     5  N    0.236717
     6  H    0.174682
     7  H   -0.014294
     8  H    0.191840
     9  H    0.619979
    10  H    0.309605
 Sum of Mulliken charges =  -0.00000

 Dipole moment (field-independent basis, Debye):
    X=             -0.3176    Y=              3.6668    Z=             -0.6856  Tot=              3.7438

 Test job not archived.
 1\1\GINC-SE174\SP\RHF\Aug-CC-pVDZ\C3H5N1O1\OHZDE\09-Apr-2025\0\\#t hf
 aug-cc-pvdz iop(5/13=1,5/36=2,99/5=2) pseudo=read geom=check guess=(re
 ad,tcheck) scf=(maxcycle=1)\\title\\0,1\O,0,1.29284676,-0.02769422,1.7
 3498501\C,0,1.3069628,-0.33461161,0.55871611\C,0,0.18873127,-0.0183054
 9,-0.41036224\C,0,-1.6863648,0.03516572,-0.16488999\N,0,-0.70824516,1.
 05297458,0.05959166\H,0,2.15835028,-0.8804005,0.09406415\H,0,0.4985726
 8,0.07924886,-1.45446\H,0,-1.88112018,0.07516417,-1.26701503\H,0,-0.48
 345214,-1.01602634,-0.28371086\H,0,-0.53506453,1.11596783,1.07321018\\

 Normal termination of Gaussian 16 at Wed Apr  9 16:18:40 2025.
