 Gaussian 16, Revision C.01,

 ----------------------------------------------------------------------
 #t hf aug-cc-pvdz symm=none int=(grid=ultrafine) guess=(read,tcheck) s
 table=(opt,rrhf)
 ----------------------------------------------------------------------
 -----
 title
 -----
 Symbolic Z-matrix:
 Charge =  0 Multiplicity = 1

 SCF Done:  E(RHF) =  -320.345829042     A.U. after   15 cycles
 Normal termination of Gaussian 16 at Wed Apr  9 19:19:45 2025.
 Gaussian 16:  ES64L-G16RevC.01  3-Jul-2019

 ----------------------------------------------------------------------
 #t hf aug-cc-pvdz iop(5/13=1,5/36=2,99/5=2) pseudo=read geom=check gue
 ss=(read,tcheck) scf=(maxcycle=1)
 ----------------------------------------------------------------------
 -----
 title
 -----
 Structure from the checkpoint file:  "Grambow2020_wb97xd3_009378_forward_mol2.chk"
 Charge =  0 Multiplicity = 1

                         Standard orientation:
 ---------------------------------------------------------------------
 Center     Atomic      Atomic             Coordinates (Angstroms)
 Number     Number       Type             X           Y           Z
 ---------------------------------------------------------------------
      1          8           0        1.541118   -1.343012   -0.496257
      2          6           0        0.765850   -0.568837   -0.020565
      3          6           0       -0.575445   -0.959681    0.571032
      4          6           0       -1.665419   -0.135886    0.063817
      5          6           0       -2.537082    0.554805   -0.374256
      6          6           0        1.102894    0.871506    0.053334
      7          7           0        1.381857    1.980594    0.137561
      8          1           0       -0.499448   -0.845721    1.658179
      9          1           0       -0.732624   -2.015934    0.351092
     10          1           0       -3.314662    1.170160   -0.762315
 ---------------------------------------------------------------------

 SCF Done:  E(RHF) =  -320.659830189     A.U. after    2 cycles

 The electronic state is 1-A.
 Alpha  occ. eigenvalues --  -20.60398 -15.55349 -11.42029 -11.31588 -11.30631
 Alpha  occ. eigenvalues --  -11.27445 -11.26746  -1.54384  -1.26850  -1.13027
 Alpha  occ. eigenvalues --   -1.03336  -0.93720  -0.78293  -0.74105  -0.70429
 Alpha  occ. eigenvalues --   -0.69256  -0.65669  -0.63658  -0.59091  -0.54066
 Alpha  occ. eigenvalues --   -0.52301  -0.50005  -0.43236  -0.42875
 Alpha virt. eigenvalues --    0.02946   0.03237   0.04181   0.04550   0.06960
 Alpha virt. eigenvalues --    0.08089   0.09704   0.10129   0.10423   0.11934
 Alpha virt. eigenvalues --    0.12452   0.13433   0.13770   0.14048   0.14528

 Mulliken charges:
               1
     1  O   -1.196891
     2  C    1.638983
     3  C   -0.586402
     4  C    0.347985
     5  C    0.313309
     6  C   -1.586921
     7  N    0.901093
     8  H    0.369895
     9  H    0.199779
    10  H   -0.400830
 Sum of Mulliken charges =  -0.00000

 Dipole moment (field-independent basis, Debye):
    X=             -2.9974    Y=             -2.3279    Z=              0.9942  Tot=              3.9233

 Test job not archived.
 1\1\GINC-SE118\SP\RHF\Aug-CC-pVDZ\C5H3N1O1\OHZDE\09-Apr-2025\0\\#t hf
 aug-cc-pvdz iop(5/13=1,5/36=2,99/5=2) pseudo=read geom=check guess=(re
 ad,tcheck) scf=(maxcycle=1)\\title\\0,1\O,0,-2.19058263,-0.74754576,0.
 68633942\C,0,-1.28021673,-0.15549177,0.18896839\C,0,-0.08994561,-0.822
 4637,-0.47452315\C,0,1.17983329,-0.2832158,-0.00460876\C,0,2.20394999,
 0.17809306,0.40421875\C,0,-1.28270044,1.32531729,0.15986793\N,0,-1.304
 68332,2.47080005,0.11111609\H,0,-0.18430958,-0.66144339,-1.55425412\H,
 0,-0.16857623,-1.89297765,-0.28330096\H,0,3.11723126,0.58892767,0.7661

 Normal termination of Gaussian 16 at Wed Apr  9 19:19:48 2025.
