 Gaussian 16, Revision C.01,

 ----------------------------------------------------------------------
 #t hf aug-cc-pvdz symm=none int=(grid=ultrafine) guess=(read,tcheck) s
 table=(opt,rrhf)
 ----------------------------------------------------------------------
 -----
 title
 -----
 Symbolic Z-matrix:
 Charge =  0 Multiplicity = 1

 SCF Done:  E(RHF) =  -286.824956760     A.U. after   14 cycles
 Normal termination of Gaussian 16 at Wed Apr  9 19:06:56 2025.
 Gaussian 16:  ES64L-G16RevC.01  3-Jul-2019

 ----------------------------------------------------------------------
 #t hf aug-cc-pvdz iop(5/13=1,5/36=2,99/5=2) pseudo=read geom=check gue
 ss=(read,tcheck) scf=(maxcycle=1)
 ----------------------------------------------------------------------
 -----
 title
 -----
 Structure from the checkpoint file:  "Grambow2020_wb97xd3_008598_reverse_mol2.chk"
 Charge =  0 Multiplicity = 1

                         Standard orientation:
 ---------------------------------------------------------------------
 Center     Atomic      Atomic             Coordinates (Angstroms)
 Number     Number       Type             X           Y           Z
 ---------------------------------------------------------------------
      1          6           0        0.422336    1.584432    0.536456
      2          6           0        0.777303    0.703319   -0.617323
      3          6           0        1.434009   -0.615292   -0.421179
      4          6           0       -1.849262   -1.098273   -0.297577
      5          6           0       -1.524636    0.067679    0.248566
      6          6           0        1.318145   -1.425488    0.621197
      7          7           0       -0.608882    0.985476   -0.260518
      8          1           0        0.535743    2.659792    0.448555
      9          1           0        0.609330    1.176915    1.526303
     10          1           0        1.070651    1.200621   -1.535662
     11          1           0        2.063591   -0.925239   -1.249848
     12          1           0       -1.349890   -1.473724   -1.181170
     13          1           0       -2.636241   -1.699158    0.135900
     14          1           0       -2.041298    0.427581    1.134095
     15          1           0        1.847334   -2.369647    0.647934
     16          1           0        0.695579   -1.193732    1.476686
 ---------------------------------------------------------------------

 SCF Done:  E(RHF) =  -287.131232452     A.U. after    2 cycles

 The electronic state is 1-A.
 Alpha  occ. eigenvalues --  -15.51125 -11.27868 -11.27121 -11.26713 -11.24550
 Alpha  occ. eigenvalues --  -11.23700 -11.21405  -1.29637  -1.07219  -1.04616
 Alpha  occ. eigenvalues --   -0.92468  -0.88093  -0.80559  -0.73074  -0.71416
 Alpha  occ. eigenvalues --   -0.68787  -0.63811  -0.62124  -0.56940  -0.55291
 Alpha  occ. eigenvalues --   -0.52953  -0.50963  -0.49036  -0.48347  -0.36825
 Alpha  occ. eigenvalues --   -0.33582
 Alpha virt. eigenvalues --    0.03699   0.03788   0.04021   0.04896   0.05330
 Alpha virt. eigenvalues --    0.05656   0.06121   0.06836   0.08748   0.10400
 Alpha virt. eigenvalues --    0.11329   0.12159   0.12424   0.13891   0.14114

 Mulliken charges:
               1
     1  C    0.023795
     2  C   -0.226659
     3  C    0.550745
     4  C   -0.008548
     5  C   -0.107860
     6  C    0.092880
     7  N    0.981037
     8  H   -0.093163
     9  H   -0.131494
    10  H   -0.247679
    11  H   -0.200646
    12  H   -0.081750
    13  H   -0.117494
    14  H   -0.187713
    15  H   -0.171184
    16  H   -0.074267
 Sum of Mulliken charges =  -0.00000

 Dipole moment (field-independent basis, Debye):
    X=              1.3724    Y=             -0.1863    Z=              0.8727  Tot=              1.6370

 Test job not archived.
 1\1\GINC-SE362\SP\RHF\Aug-CC-pVDZ\C6H9N1\OHZDE\09-Apr-2025\0\\#t hf au
 g-cc-pvdz iop(5/13=1,5/36=2,99/5=2) pseudo=read geom=check guess=(read
 ,tcheck) scf=(maxcycle=1)\\title\\0,1\C,0,1.59474538,0.73574359,-0.432
 45683\C,0,1.11279247,-0.1747651,0.65025413\C,0,-0.01839843,0.19757145,
 1.53921064\C,0,-1.29057593,-1.32588302,-1.12331952\C,0,-0.2376859,-0.5
 9055576,-1.46068253\C,0,-1.04910782,0.97774658,1.24705259\N,0,0.964519
 44,-0.50989663,-0.76188402\H,0,2.65657208,0.80882324,-0.64262416\H,0,1
 .028651,1.65218911,-0.57563336\H,0,1.86254319,-0.78863585,1.13784523\H

 Normal termination of Gaussian 16 at Wed Apr  9 19:07:01 2025.
