 Gaussian 16, Revision C.01,

 ----------------------------------------------------------------------
 #t hf aug-cc-pvdz symm=none int=(grid=ultrafine) guess=(read,tcheck) s
 table=(opt,rrhf)
 ----------------------------------------------------------------------
 -----
 title
 -----
 Symbolic Z-matrix:
 Charge =  0 Multiplicity = 1

 SCF Done:  E(RHF) =  -283.615190345     A.U. after   16 cycles
 Normal termination of Gaussian 16 at Wed Apr  9 03:09:43 2025.
 Gaussian 16:  ES64L-G16RevC.01  3-Jul-2019

 ----------------------------------------------------------------------
 #t hf aug-cc-pvdz iop(5/13=1,5/36=2,99/5=2) pseudo=read geom=check gue
 ss=(read,tcheck) scf=(maxcycle=1)
 ----------------------------------------------------------------------
 -----
 title
 -----
 Structure from the checkpoint file:  "Grambow2020_b97d3_006658_reverse_mol2.chk"
 Charge =  0 Multiplicity = 1

                         Standard orientation:
 ---------------------------------------------------------------------
 Center     Atomic      Atomic             Coordinates (Angstroms)
 Number     Number       Type             X           Y           Z
 ---------------------------------------------------------------------
      1          7           0       -1.487048    0.117250   -0.094110
      2          6           0       -0.659251    1.000946   -0.298019
      3          6           0        0.782311    0.994207    0.139093
      4          6           0        1.373035   -0.402591    0.290937
      5          6           0       -2.485220   -0.690302    0.029832
      6          8           0        2.398050   -0.772661   -0.247640
      7          1           0        0.802079    1.492911    1.124720
      8          1           0        1.402389    1.592167   -0.539646
      9          1           0        0.756869   -1.087440    0.921620
     10          1           0       -3.136377   -0.608393    0.898295
     11          1           0       -2.665270   -1.442271   -0.736157
 ---------------------------------------------------------------------

 SCF Done:  E(RHF) =  -283.896035924     A.U. after    2 cycles

 The electronic state is 1-A.
 Alpha  occ. eigenvalues --  -20.56004 -15.59661 -11.35689 -11.30401 -11.29565
 Alpha  occ. eigenvalues --  -11.28282  -1.48084  -1.30672  -1.09124  -1.01488
 Alpha  occ. eigenvalues --   -0.83258  -0.76669  -0.70566  -0.69441  -0.65760
 Alpha  occ. eigenvalues --   -0.64852  -0.60590  -0.57092  -0.52139  -0.49986
 Alpha  occ. eigenvalues --   -0.43752  -0.32156
 Alpha virt. eigenvalues --    0.02944   0.04160   0.04451   0.04811   0.06050
 Alpha virt. eigenvalues --    0.06731   0.08019   0.09577   0.10006   0.11411
 Alpha virt. eigenvalues --    0.11993   0.12737   0.13803   0.14866   0.15369

 Mulliken charges:
               1
     1  N    0.799404
     2  C   -0.847128
     3  C   -0.516422
     4  C    1.088369
     5  C   -0.262628
     6  O   -1.100488
     7  H    0.385971
     8  H    0.197343
     9  H    0.174114
    10  H    0.041646
    11  H    0.039818
 Sum of Mulliken charges =  -0.00000

 Dipole moment (field-independent basis, Debye):
    X=             -2.3267    Y=             -0.2148    Z=              2.0327  Tot=              3.0970

 Test job not archived.
 1\1\GINC-SE208\SP\RHF\Aug-CC-pVDZ\C4H5N1O1\OHZDE\09-Apr-2025\0\\#t hf
 aug-cc-pvdz iop(5/13=1,5/36=2,99/5=2) pseudo=read geom=check guess=(re
 ad,tcheck) scf=(maxcycle=1)\\title\\0,1\N,0,0.4468393,1.09764894,-0.37
 887393\C,0,0.98760063,0.02034662,-0.61284031\C,0,0.62188644,-1.3126893
 8,-0.01410551\C,0,-0.83828196,-1.41718239,0.41020956\C,0,0.01485845,2.
 30669675,-0.25459151\O,0,-1.59054712,-2.30378274,0.05565405\H,0,1.2571
 5854,-1.42626658,0.88260306\H,0,0.87404555,-2.13334618,-0.69651087\H,0
 ,-1.18149134,-0.57569085,1.05870052\H,0,0.44233454,2.95272193,0.510169

 Normal termination of Gaussian 16 at Wed Apr  9 03:09:47 2025.
