 Gaussian 16, Revision C.01,

 ----------------------------------------------------------------------
 #t hf aug-cc-pvdz symm=none int=(grid=ultrafine) guess=(read,tcheck) s
 table=(opt,rrhf)
 ----------------------------------------------------------------------
 -----
 title
 -----
 Symbolic Z-matrix:
 Charge =  0 Multiplicity = 1

 SCF Done:  E(RHF) =  -306.676569312     A.U. after   13 cycles
 Normal termination of Gaussian 16 at Wed Apr  9 18:59:52 2025.
 Gaussian 16:  ES64L-G16RevC.01  3-Jul-2019

 ----------------------------------------------------------------------
 #t hf aug-cc-pvdz iop(5/13=1,5/36=2,99/5=2) pseudo=read geom=check gue
 ss=(read,tcheck) scf=(maxcycle=1)
 ----------------------------------------------------------------------
 -----
 title
 -----
 Structure from the checkpoint file:  "Grambow2020_wb97xd3_008429_forward_mol2.chk"
 Charge =  0 Multiplicity = 1

                         Standard orientation:
 ---------------------------------------------------------------------
 Center     Atomic      Atomic             Coordinates (Angstroms)
 Number     Number       Type             X           Y           Z
 ---------------------------------------------------------------------
      1          6           0        0.950418   -0.984439   -0.655335
      2          6           0        1.283240    0.462896   -0.328954
      3          6           0        0.005301    1.203937   -0.038829
      4          8           0       -1.203042    0.702460   -0.552911
      5          6           0       -1.418310   -0.565087    0.066586
      6          6           0       -0.038839   -0.986641    0.541043
      7          6           0        0.579702    0.346147    1.020648
      8          1           0        0.530168   -1.195948   -1.642061
      9          1           0        1.801312   -1.640349   -0.472963
     10          1           0        2.202334    0.982337   -0.568708
     11          1           0        0.036830    2.282689    0.028331
     12          1           0       -1.842756   -1.242339   -0.677672
     13          1           0       -2.122312   -0.461930    0.902296
     14          1           0       -0.022345   -1.846981    1.205539
     15          1           0        0.872035    0.641963    2.017579
 ---------------------------------------------------------------------

 SCF Done:  E(RHF) =  -306.998224121     A.U. after    2 cycles

 The electronic state is 1-A.
 Alpha  occ. eigenvalues --  -20.53816 -11.28371 -11.27804 -11.24226 -11.23791
 Alpha  occ. eigenvalues --  -11.23521 -11.23369  -1.46712  -1.19555  -1.02736
 Alpha  occ. eigenvalues --   -0.93502  -0.84954  -0.79443  -0.73904  -0.72658
 Alpha  occ. eigenvalues --   -0.65886  -0.63490  -0.60335  -0.57444  -0.55707
 Alpha  occ. eigenvalues --   -0.50498  -0.48995  -0.47766  -0.45895  -0.39592
 Alpha  occ. eigenvalues --   -0.37088
 Alpha virt. eigenvalues --    0.03244   0.03602   0.03827   0.04431   0.05835
 Alpha virt. eigenvalues --    0.05990   0.06484   0.07056   0.10272   0.12224
 Alpha virt. eigenvalues --    0.12491   0.12951   0.13850   0.14405   0.14539

 Mulliken charges:
               1
     1  C   -0.156189
     2  C    0.351937
     3  C    1.369684
     4  O   -1.526122
     5  C    0.600179
     6  C   -0.196639
     7  C    0.067213
     8  H    0.018864
     9  H    0.057951
    10  H   -0.225055
    11  H   -0.146039
    12  H    0.064198
    13  H    0.071429
    14  H   -0.077280
    15  H   -0.274133
 Sum of Mulliken charges =  -0.00000

 Dipole moment (field-independent basis, Debye):
    X=              1.0946    Y=             -0.8708    Z=              1.1944  Tot=              1.8393

 Test job not archived.
 1\1\GINC-SE115\SP\RHF\Aug-CC-pVDZ\C6H8O1\OHZDE\09-Apr-2025\0\\#t hf au
 g-cc-pvdz iop(5/13=1,5/36=2,99/5=2) pseudo=read geom=check guess=(read
 ,tcheck) scf=(maxcycle=1)\\title\\0,1\C,0,0.73967449,1.1406553,0.24328
 154\C,0,1.36306053,-0.20000271,-0.11182775\C,0,0.37922724,-1.29468918,
 0.20467793\O,0,-0.6306599,-1.04839451,1.15089009\C,0,-1.45784087,-0.01
 875609,0.61014031\C,0,-0.5777441,0.66141423,-0.4235687\C,0,0.19819064,
 -0.5225899,-1.04404926\H,0,0.68660016,1.40848862,1.30178186\H,0,1.1990
 2425,1.95498676,-0.31650542\H,0,2.41705261,-0.4031513,-0.25277542\H,0,

 Normal termination of Gaussian 16 at Wed Apr  9 18:59:57 2025.
