 Gaussian 16, Revision C.01,

 ----------------------------------------------------------------------
 #t hf aug-cc-pvdz symm=none int=(grid=ultrafine) guess=(read,tcheck) s
 table=(opt,rrhf)
 ----------------------------------------------------------------------
 -----
 title
 -----
 Symbolic Z-matrix:
 Charge =  0 Multiplicity = 1

 SCF Done:  E(RHF) =  -358.598919547     A.U. after   14 cycles
 Normal termination of Gaussian 16 at Wed Apr  9 04:04:30 2025.
 Gaussian 16:  ES64L-G16RevC.01  3-Jul-2019

 ----------------------------------------------------------------------
 #t hf aug-cc-pvdz iop(5/13=1,5/36=2,99/5=2) pseudo=read geom=check gue
 ss=(read,tcheck) scf=(maxcycle=1)
 ----------------------------------------------------------------------
 -----
 title
 -----
 Structure from the checkpoint file:  "Grambow2020_wb97xd3_009143_reverse_mol2.chk"
 Charge =  0 Multiplicity = 1

                         Standard orientation:
 ---------------------------------------------------------------------
 Center     Atomic      Atomic             Coordinates (Angstroms)
 Number     Number       Type             X           Y           Z
 ---------------------------------------------------------------------
      1          6           0       -2.457881   -0.527640    0.001418
      2          6           0       -1.052144   -0.046032   -0.001365
      3          6           0       -0.570684    1.208140   -0.000423
      4          8           0        0.809542    1.136765   -0.000004
      5          6           0        1.051174   -0.167200   -0.001061
      6          8           0        2.330587   -0.509719    0.001512
      7          7           0        0.022572   -0.937346   -0.002689
      8          1           0       -2.653771   -1.144549   -0.877323
      9          1           0       -2.649885   -1.141914    0.882993
     10          1           0       -3.157364    0.307978    0.002431
     11          1           0       -1.005052    2.191533    0.002389
     12          1           0        2.364246   -1.471607    0.004859
 ---------------------------------------------------------------------

 SCF Done:  E(RHF) =  -358.960546654     A.U. after    2 cycles

 The electronic state is 1-A.
 Alpha  occ. eigenvalues --  -20.62371 -20.61558 -15.49373 -11.40509 -11.28748
 Alpha  occ. eigenvalues --  -11.27560 -11.24202  -1.59971  -1.52482  -1.25476
 Alpha  occ. eigenvalues --   -1.06054  -0.96916  -0.86159  -0.83413  -0.77229
 Alpha  occ. eigenvalues --   -0.70177  -0.67451  -0.65293  -0.60739  -0.59194
 Alpha  occ. eigenvalues --   -0.56787  -0.56470  -0.55130  -0.50474  -0.46936
 Alpha  occ. eigenvalues --   -0.34010
 Alpha virt. eigenvalues --    0.03495   0.04081   0.04361   0.05790   0.06063
 Alpha virt. eigenvalues --    0.09159   0.09618   0.09859   0.11549   0.12808
 Alpha virt. eigenvalues --    0.13940   0.14705   0.15439   0.15570   0.16754

 Mulliken charges:
               1
     1  C   -0.541443
     2  C   -1.135643
     3  C    1.363497
     4  O   -1.422008
     5  C    1.295145
     6  O   -1.303971
     7  N    0.941190
     8  H    0.238919
     9  H    0.239867
    10  H    0.177940
    11  H   -0.144155
    12  H    0.290662
 Sum of Mulliken charges =  -0.00000

 Dipole moment (field-independent basis, Debye):
    X=             -0.7456    Y=              0.0782    Z=              0.0135  Tot=              0.7498

 Test job not archived.
 1\1\GINC-SE452\SP\RHF\Aug-CC-pVDZ\C4H5N1O2\OHZDE\09-Apr-2025\0\\#t hf
 aug-cc-pvdz iop(5/13=1,5/36=2,99/5=2) pseudo=read geom=check guess=(re
 ad,tcheck) scf=(maxcycle=1)\\title\\0,1\C,0,-1.74046989,-0.21090294,-0
 .78955496\C,0,-0.42186098,0.10273824,-0.18049824\C,0,0.10976047,1.2882
 8231,0.16099226\O,0,1.36281082,1.05720326,0.69633136\C,0,1.48686945,-0
 .26164995,0.63350213\O,0,2.62702046,-0.74960644,1.09845147\N,0,0.49252
 436,-0.90439799,0.13420106\H,0,-1.6099523,-0.72802357,-1.74175636\H,0,
 -2.31711461,-0.86774474,-0.13578787\H,0,-2.31671582,0.69751831,-0.9634

 Normal termination of Gaussian 16 at Wed Apr  9 04:04:34 2025.
