 Gaussian 16, Revision C.01,

 ----------------------------------------------------------------------
 #t hf aug-cc-pvdz symm=none int=(grid=ultrafine) guess=(read,tcheck) s
 table=(opt,rrhf)
 ----------------------------------------------------------------------
 -----
 title
 -----
 Symbolic Z-matrix:
 Charge =  0 Multiplicity = 1

 SCF Done:  E(RHF) =  -270.733781984     A.U. after   15 cycles
 Normal termination of Gaussian 16 at Wed Apr  9 18:58:00 2025.
 Gaussian 16:  ES64L-G16RevC.01  3-Jul-2019

 ----------------------------------------------------------------------
 #t hf aug-cc-pvdz iop(5/13=1,5/36=2,99/5=2) pseudo=read geom=check gue
 ss=(read,tcheck) scf=(maxcycle=1)
 ----------------------------------------------------------------------
 -----
 title
 -----
 Structure from the checkpoint file:  "Grambow2020_wb97xd3_008388_reverse_mol2.chk"
 Charge =  0 Multiplicity = 1

                         Standard orientation:
 ---------------------------------------------------------------------
 Center     Atomic      Atomic             Coordinates (Angstroms)
 Number     Number       Type             X           Y           Z
 ---------------------------------------------------------------------
      1          6           0        1.915927    0.873596    0.063886
      2          6           0        1.077788   -0.370960    0.260777
      3          6           0       -0.249640   -0.336551    1.010038
      4          6           0       -0.933002   -1.046982   -0.068487
      5          6           0        0.322732   -1.033284   -0.931847
      6          6           0       -1.425532    0.401047    0.254720
      7          6           0       -1.155334    1.458047   -0.631728
      8          1           0        1.350091    1.635608   -0.471158
      9          1           0        2.237487    1.280359    1.025900
     10          1           0        2.813479    0.636835   -0.512448
     11          1           0       -0.395007   -0.386446    2.081386
     12          1           0        1.680841   -1.141359    0.751053
     13          1           0       -1.696156   -1.811598   -0.020472
     14          1           0        0.254077   -0.432331   -1.835811
     15          1           0        0.684409   -2.033727   -1.167116
     16          1           0       -2.308256    0.358826    0.893995
     17          1           0       -1.938602    2.224350   -0.489485
 ---------------------------------------------------------------------

 SCF Done:  E(RHF) =  -271.023449870     A.U. after    2 cycles

 The electronic state is 1-A.
 Alpha  occ. eigenvalues --  -11.26528 -11.25985 -11.24343 -11.24216 -11.24119
 Alpha  occ. eigenvalues --  -11.23061 -11.21084  -1.21168  -1.03608  -0.96805
 Alpha  occ. eigenvalues --   -0.91443  -0.85526  -0.73819  -0.72088  -0.71255
 Alpha  occ. eigenvalues --   -0.61919  -0.59550  -0.58568  -0.55874  -0.54540
 Alpha  occ. eigenvalues --   -0.50405  -0.47226  -0.46276  -0.41712  -0.41381
 Alpha  occ. eigenvalues --   -0.34307
 Alpha virt. eigenvalues --    0.02992   0.03376   0.03527   0.04519   0.05800
 Alpha virt. eigenvalues --    0.05913   0.06049   0.06343   0.07124   0.08433
 Alpha virt. eigenvalues --    0.09260   0.11904   0.12474   0.13233   0.13792

 Mulliken charges:
               1
     1  C   -0.443003
     2  C   -0.488796
     3  C    0.559614
     4  C    0.364920
     5  C    0.122312
     6  C    0.315920
     7  C   -0.597750
     8  H    0.215217
     9  H    0.193384
    10  H    0.188579
    11  H   -0.255061
    12  H    0.093583
    13  H   -0.233998
    14  H    0.100866
    15  H    0.046010
    16  H   -0.176680
    17  H   -0.005118
 Sum of Mulliken charges =  -0.00000

 Dipole moment (field-independent basis, Debye):
    X=             -0.5449    Y=             -1.7072    Z=              1.7186  Tot=              2.4830

 Test job not archived.
 1\1\GINC-SE028\SP\RHF\Aug-CC-pVDZ\C7H10\OHZDE\09-Apr-2025\0\\#t hf aug
 -cc-pvdz iop(5/13=1,5/36=2,99/5=2) pseudo=read geom=check guess=(read,
 tcheck) scf=(maxcycle=1)\\title\\0,1\C,0,1.9559998,-0.277693,0.1852779
 2\C,0,0.56319154,-0.86950258,0.18839631\C,0,-0.59256325,-0.20243711,0.
 92588912\C,0,-1.45458182,-0.28289487,-0.25112564\C,0,-0.32262246,-0.85
 692687,-1.09468923\C,0,-1.10842679,1.14533767,0.28194377\C,0,-0.231487
 46,1.97812314,-0.43464088\H,0,1.94371436,0.72814949,-0.23333356\H,0,2.
 36117949,-0.23517293,1.19935308\H,0,2.62770619,-0.89671454,-0.41425436

 Normal termination of Gaussian 16 at Wed Apr  9 18:58:06 2025.
