 Gaussian 16, Revision C.01,

 ----------------------------------------------------------------------
 #t hf aug-cc-pvdz symm=none int=(grid=ultrafine) guess=(read,tcheck) s
 table=(opt,rrhf)
 ----------------------------------------------------------------------
 -----
 title
 -----
 Symbolic Z-matrix:
 Charge =  0 Multiplicity = 1

 SCF Done:  E(RHF) =  -310.184622980     A.U. after   13 cycles

 1\1\GINC-SE014\Stability\RHF\Aug-CC-pVDZ\C6H14O1\OHZDE\09-Apr-2025\0\\
 #t hf aug-cc-pvdz symm=none int=(grid=ultrafine) guess=(read,tcheck) s
 table=(opt,rrhf)\\title\\0,1\C,0,-2.75473021,-0.00060456,-0.76602924\C
 ,0,-2.08866435,-0.06673409,0.37665274\C,0,-1.16570823,-1.17882821,0.77
 460588\C,0,0.2534181,-0.70597293,1.09688025\C,0,0.93249004,-0.05303709
 ,-0.08834442\O,0,2.26105223,0.25302214,0.25397313\C,0,2.95140517,0.885
 50467,-0.78885258\H,0,-2.66651458,-0.78017175,-1.51631957\H,0,-0.41536
 826,1.27956555,-3.33389228\H,0,-3.41403657,0.82808173,-0.99391157\H,0,

 Normal termination of Gaussian 16 at Wed Apr  9 18:34:59 2025.
 Gaussian 16:  ES64L-G16RevC.01  3-Jul-2019

 ----------------------------------------------------------------------
 #t hf aug-cc-pvdz iop(5/13=1,5/36=2,99/5=2) pseudo=read geom=check gue
 ss=(read,tcheck) scf=(maxcycle=1)
 ----------------------------------------------------------------------
 -----
 title
 -----
 Structure from the checkpoint file:  "Grambow2020_wb97xd3_007721_reverse_mol2.chk"
 Charge =  0 Multiplicity = 1

                         Standard orientation:
 ---------------------------------------------------------------------
 Center     Atomic      Atomic             Coordinates (Angstroms)
 Number     Number       Type             X           Y           Z
 ---------------------------------------------------------------------
      1          6           0        2.748498    1.107674   -0.013007
      2          6           0        2.188362   -0.002435   -0.468688
      3          6           0        1.516047   -1.040517    0.378276
      4          6           0        0.060553   -1.298957   -0.016842
      5          6           0       -0.808988   -0.067982    0.127451
      6          8           0       -2.143611   -0.412815   -0.147869
      7          6           0       -3.010392    0.684843   -0.058730
      8          1           0        2.752322    1.343744    1.046568
      9          1           0        0.038194    3.572799    0.518768
     10          1           0        3.226444    1.818292   -0.676276
     11          1           0        2.205485   -0.199824   -1.539468
     12          1           0        2.069928   -1.980450    0.289967
     13          1           0        1.569553   -0.742328    1.429833
     14          1           0        0.427563    2.950904    0.385203
     15          1           0       -0.353470   -2.093189    0.608885
     16          1           0        0.006586   -1.651912   -1.050935
     17          1           0       -0.725574    0.339188    1.148471
     18          1           0       -0.473643    0.723666   -0.558326
     19          1           0       -3.001423    1.123868    0.948208
     20          1           0       -4.016604    0.331601   -0.281157
     21          1           0       -2.740947    1.470404   -0.777546
 ---------------------------------------------------------------------

 SCF Done:  E(RHF) =  -310.524778408     A.U. after    2 cycles

 The electronic state is 1-A.
 Alpha  occ. eigenvalues --  -20.53912 -11.27654 -11.27538 -11.24221 -11.23632
 Alpha  occ. eigenvalues --  -11.23020 -11.22772  -1.46313  -1.09814  -1.02690
 Alpha  occ. eigenvalues --   -0.95004  -0.88655  -0.82204  -0.76381  -0.67675
 Alpha  occ. eigenvalues --   -0.66080  -0.65550  -0.62194  -0.61917  -0.59326
 Alpha  occ. eigenvalues --   -0.57542  -0.56938  -0.52137  -0.51188  -0.49601
 Alpha  occ. eigenvalues --   -0.48064  -0.47041  -0.41301  -0.37118
 Alpha virt. eigenvalues --    0.03538   0.03673   0.03897   0.04092   0.05715
 Alpha virt. eigenvalues --    0.06096   0.06238   0.06506   0.06625   0.08641
 Alpha virt. eigenvalues --    0.09340   0.09603   0.09886   0.11316   0.12797

 Mulliken charges:
               1
     1  C   -0.183712
     2  C    0.950715
     3  C   -0.509932
     4  C   -0.571588
     5  C    0.812294
     6  O   -1.354894
     7  C    0.095581
     8  H   -0.097819
     9  H    0.039388
    10  H   -0.126732
    11  H   -0.200051
    12  H    0.202706
    13  H    0.061103
    14  H   -0.037081
    15  H    0.131192
    16  H    0.116805
    17  H    0.153812
    18  H    0.168553
    19  H    0.192971
    20  H   -0.024776
    21  H    0.181466
 Sum of Mulliken charges =  -0.00000

 Dipole moment (field-independent basis, Debye):
    X=              0.3052    Y=              0.7463    Z=              0.2661  Tot=              0.8491

 Test job not archived.
 1\1\GINC-SE014\SP\RHF\Aug-CC-pVDZ\C6H14O1\OHZDE\09-Apr-2025\0\\#t hf a
 ug-cc-pvdz iop(5/13=1,5/36=2,99/5=2) pseudo=read geom=check guess=(rea
 d,tcheck) scf=(maxcycle=1)\\title\\0,1\C,0,-2.75473021,-0.00060456,-0.
 76602924\C,0,-2.08866435,-0.06673409,0.37665274\C,0,-1.16570823,-1.178
 82821,0.77460588\C,0,0.2534181,-0.70597293,1.09688025\C,0,0.93249004,-
 0.05303709,-0.08834442\O,0,2.26105223,0.25302214,0.25397313\C,0,2.9514
 0517,0.88550467,-0.78885258\H,0,-2.66651458,-0.78017175,-1.51631957\H,
 0,-0.41536826,1.27956555,-3.33389228\H,0,-3.41403657,0.82808173,-0.993

 Normal termination of Gaussian 16 at Wed Apr  9 18:35:08 2025.
