 Gaussian 16, Revision C.01,

 ----------------------------------------------------------------------
 #t hf aug-cc-pvdz symm=none int=(grid=ultrafine) guess=(read,tcheck) s
 table=(opt,rrhf)
 ----------------------------------------------------------------------
 -----
 title
 -----
 Symbolic Z-matrix:
 Charge =  0 Multiplicity = 1

 SCF Done:  E(RHF) =  -287.897514859     A.U. after   16 cycles

 1\1\GINC-SE396\Stability\RHF\Aug-CC-pVDZ\C6H11N1\OHZDE\09-Apr-2025\0\\
 #t hf aug-cc-pvdz symm=none int=(grid=ultrafine) guess=(read,tcheck) s
 table=(opt,rrhf)\\title\\0,1\C,0,1.81615917,-0.60512237,0.45132239\C,0
 ,0.47113699,0.11711418,0.48190734\C,0,0.50665715,1.40070561,-0.2527679
 2\C,0,-0.66281599,-0.82867832,-0.06661224\C,0,-2.05368232,-0.49528649,
 0.47747329\C,0,-0.68230454,-0.62720015,-1.55322788\N,0,-0.24715119,0.3
 9133648,-2.0310972\H,0,1.78074318,-1.5415724,1.01141181\H,0,2.60493772
 ,0.01400921,0.88136649\H,0,2.10007854,-0.84318943,-0.57713106\H,0,0.17

 Normal termination of Gaussian 16 at Wed Apr  9 03:46:52 2025.
 Gaussian 16:  ES64L-G16RevC.01  3-Jul-2019

 ----------------------------------------------------------------------
 #t hf aug-cc-pvdz iop(5/13=1,5/36=2,99/5=2) pseudo=read geom=check gue
 ss=(read,tcheck) scf=(maxcycle=1)
 ----------------------------------------------------------------------
 -----
 title
 -----
 Structure from the checkpoint file:  "Grambow2020_wb97xd3_007880_forward_mol1.chk"
 Charge =  0 Multiplicity = 1

                         Standard orientation:
 ---------------------------------------------------------------------
 Center     Atomic      Atomic             Coordinates (Angstroms)
 Number     Number       Type             X           Y           Z
 ---------------------------------------------------------------------
      1          6           0        1.837995   -0.863941   -0.568684
      2          6           0        0.670818   -0.572632    0.371785
      3          6           0        0.865028    0.679017    1.136162
      4          6           0       -0.681367   -0.549733   -0.435878
      5          6           0       -1.906806   -0.894995    0.413112
      6          6           0       -0.839048    0.857018   -0.933057
      7          7           0       -0.276018    1.763679   -0.370832
      8          1           0        1.689932   -1.798514   -1.113242
      9          1           0        2.776897   -0.940877   -0.018251
     10          1           0        1.945835   -0.063330   -1.305159
     11          1           0        0.542991   -1.411799    1.066865
     12          1           0        0.383342    2.304021    0.173195
     13          1           0        1.889352    1.033748    1.232555
     14          1           0        0.287855    0.803112    2.049293
     15          1           0       -0.622662   -1.249737   -1.272819
     16          1           0       -2.821902   -0.821269   -0.174097
     17          1           0       -1.824531   -1.914098    0.793538
     18          1           0       -1.994701   -0.215407    1.263309
 ---------------------------------------------------------------------

 SCF Done:  E(RHF) =  -288.204688840     A.U. after    2 cycles

 The electronic state is 1-A.
 Alpha  occ. eigenvalues --  -15.55052 -11.26783 -11.25461 -11.24256 -11.24039
 Alpha  occ. eigenvalues --  -11.23453 -11.22564  -1.26035  -1.09962  -1.01959
 Alpha  occ. eigenvalues --   -0.93161  -0.90055  -0.84170  -0.78338  -0.66978
 Alpha  occ. eigenvalues --   -0.63948  -0.62237  -0.58524  -0.56656  -0.55461
 Alpha  occ. eigenvalues --   -0.54239  -0.52044  -0.51591  -0.50008  -0.47354
 Alpha  occ. eigenvalues --   -0.45315  -0.27101
 Alpha virt. eigenvalues --    0.03555   0.03629   0.03962   0.04263   0.05154
 Alpha virt. eigenvalues --    0.05609   0.05668   0.07022   0.07350   0.08353
 Alpha virt. eigenvalues --    0.09255   0.09682   0.11310   0.12353   0.13077

 Mulliken charges:
               1
     1  C   -0.241980
     2  C   -0.470364
     3  C    0.039816
     4  C   -0.242572
     5  C   -0.090466
     6  C   -1.427763
     7  N    0.962327
     8  H    0.125384
     9  H    0.114732
    10  H    0.277507
    11  H    0.188876
    12  H    0.177568
    13  H   -0.058069
    14  H   -0.061163
    15  H    0.136902
    16  H    0.153928
    17  H    0.162470
    18  H    0.252866
 Sum of Mulliken charges =  -0.00000

 Dipole moment (field-independent basis, Debye):
    X=              1.2835    Y=             -1.4200    Z=              1.6946  Tot=              2.5564

 Test job not archived.
 1\1\GINC-SE396\SP\RHF\Aug-CC-pVDZ\C6H11N1\OHZDE\09-Apr-2025\0\\#t hf a
 ug-cc-pvdz iop(5/13=1,5/36=2,99/5=2) pseudo=read geom=check guess=(rea
 d,tcheck) scf=(maxcycle=1)\\title\\0,1\C,0,1.81615917,-0.60512237,0.45
 132239\C,0,0.47113699,0.11711418,0.48190734\C,0,0.50665715,1.40070561,
 -0.25276792\C,0,-0.66281599,-0.82867832,-0.06661224\C,0,-2.05368232,-0
 .49528649,0.47747329\C,0,-0.68230454,-0.62720015,-1.55322788\N,0,-0.24
 715119,0.39133648,-2.0310972\H,0,1.78074318,-1.5415724,1.01141181\H,0,
 2.60493772,0.01400921,0.88136649\H,0,2.10007854,-0.84318943,-0.5771310

 Normal termination of Gaussian 16 at Wed Apr  9 03:46:58 2025.
