 Gaussian 16, Revision C.01,

 ----------------------------------------------------------------------
 #t hf aug-cc-pvdz symm=none int=(grid=ultrafine) guess=(read,tcheck) s
 table=(opt,rrhf)
 ----------------------------------------------------------------------
 -----
 title
 -----
 Symbolic Z-matrix:
 Charge =  0 Multiplicity = 1

 SCF Done:  E(RHF) =  -343.458456988     A.U. after   15 cycles
 Normal termination of Gaussian 16 at Wed Apr  9 04:04:21 2025.
 Gaussian 16:  ES64L-G16RevC.01  3-Jul-2019

 ----------------------------------------------------------------------
 #t hf aug-cc-pvdz iop(5/13=1,5/36=2,99/5=2) pseudo=read geom=check gue
 ss=(read,tcheck) scf=(maxcycle=1)
 ----------------------------------------------------------------------
 -----
 title
 -----
 Structure from the checkpoint file:  "Grambow2020_wb97xd3_009097_reverse_mol2.chk"
 Charge =  0 Multiplicity = 1

                         Standard orientation:
 ---------------------------------------------------------------------
 Center     Atomic      Atomic             Coordinates (Angstroms)
 Number     Number       Type             X           Y           Z
 ---------------------------------------------------------------------
      1          6           0       -0.036224    0.750665   -0.279475
      2          6           0       -0.793395   -0.007600    0.741719
      3          8           0       -2.008420   -0.364098    0.499172
      4          6           0       -2.709300   -0.161469   -0.582888
      5          6           0        2.060469   -1.196736   -0.256411
      6          8           0        2.241639    0.060632    0.019111
      7          6           0        1.371108    1.016058    0.075307
      8          1           0       -0.062684    0.179436   -1.237151
      9          1           0       -0.553243    1.700149   -0.497152
     10          1           0       -0.438300   -0.259551    1.728278
     11          1           0       -2.280516    0.356177   -1.425585
     12          1           0       -3.708340   -0.557832   -0.548078
     13          1           0        1.064043   -1.593211   -0.376773
     14          1           0        2.959280   -1.788044   -0.251465
     15          1           0        1.798058    1.985096    0.272156
 ---------------------------------------------------------------------

 SCF Done:  E(RHF) =  -343.807563975     A.U. after    2 cycles

 The electronic state is 1-A.
 Alpha  occ. eigenvalues --  -20.68473 -20.68066 -11.30220 -11.29807 -11.28532
 Alpha  occ. eigenvalues --  -11.27655 -11.26793  -1.60377  -1.60006  -1.09132
 Alpha  occ. eigenvalues --   -1.02894  -0.98506  -0.82742  -0.78055  -0.75447
 Alpha  occ. eigenvalues --   -0.75206  -0.71418  -0.68420  -0.65756  -0.64253
 Alpha  occ. eigenvalues --   -0.59855  -0.58895  -0.56240  -0.51868  -0.51472
 Alpha  occ. eigenvalues --   -0.26164  -0.24796
 Alpha virt. eigenvalues --    0.03518   0.03813   0.03967   0.04119   0.05858
 Alpha virt. eigenvalues --    0.06121   0.06763   0.07191   0.08352   0.09297
 Alpha virt. eigenvalues --    0.11442   0.11521   0.12784   0.13744   0.14398

 Mulliken charges:
               1
     1  C   -0.552774
     2  C    0.887180
     3  O   -1.063171
     4  C    0.375984
     5  C    0.383596
     6  O   -1.092703
     7  C    0.997898
     8  H    0.287508
     9  H    0.093361
    10  H   -0.165874
    11  H    0.070674
    12  H   -0.123425
    13  H    0.121434
    14  H   -0.134621
    15  H   -0.085068
 Sum of Mulliken charges =   0.00000

 Dipole moment (field-independent basis, Debye):
    X=              0.3526    Y=              0.5941    Z=              0.0263  Tot=              0.6914

 Test job not archived.
 1\1\GINC-SE159\SP\RHF\Aug-CC-pVDZ\C5H8O2\OHZDE\09-Apr-2025\0\\#t hf au
 g-cc-pvdz iop(5/13=1,5/36=2,99/5=2) pseudo=read geom=check guess=(read
 ,tcheck) scf=(maxcycle=1)\\title\\0,1\C,0,-0.60892582,0.0382804,0.4462
 0896\C,0,-0.46338901,0.24799178,-1.01185527\O,0,-0.27938682,1.43951891
 ,-1.46859571\C,0,-0.17769059,2.55491965,-0.79875754\C,0,1.53899848,-1.
 8526023,0.44855345\O,0,0.33232522,-2.13211911,0.84291204\C,0,-0.717442
 34,-1.37599785,0.85232564\H,0,0.27155535,0.4918062,0.95925035\H,0,-1.4
 801828,0.60286052,0.81819424\H,0,-0.54954002,-0.51606804,-1.76793747\H

 Normal termination of Gaussian 16 at Wed Apr  9 04:04:29 2025.
