 Gaussian 16, Revision C.01,

 ----------------------------------------------------------------------
 #t hf aug-cc-pvdz symm=none int=(grid=ultrafine) guess=(read,tcheck) s
 table=(opt,rrhf)
 ----------------------------------------------------------------------
 -----
 title
 -----
 Symbolic Z-matrix:
 Charge =  0 Multiplicity = 1

 SCF Done:  E(RHF) =  -307.791468824     A.U. after   15 cycles

 1\1\GINC-SE335\Stability\RHF\Aug-CC-pVDZ\C6H10O1\OHZDE\09-Apr-2025\0\\
 #t hf aug-cc-pvdz symm=none int=(grid=ultrafine) guess=(read,tcheck) s
 table=(opt,rrhf)\\title\\0,1\C,0,1.84723141,-0.5594999,0.19067415\C,0,
 0.51423151,0.11285182,0.46757546\C,0,0.14834737,1.2910388,-0.45817216\
 C,0,-1.3599152,1.37162154,-0.58064537\C,0,-1.81087568,0.18097126,-0.00
 173721\C,0,-0.71566408,-0.80733906,0.38002062\O,0,-0.6482307,-1.822476
 63,-0.60580722\H,0,1.8796848,-0.97932272,-0.81624761\H,0,2.66411265,0.
 15914366,0.28025971\H,0,2.03704469,-1.37435925,0.89178238\H,0,0.525578

 Normal termination of Gaussian 16 at Wed Apr  9 03:45:45 2025.
 Gaussian 16:  ES64L-G16RevC.01  3-Jul-2019

 ----------------------------------------------------------------------
 #t hf aug-cc-pvdz iop(5/13=1,5/36=2,99/5=2) pseudo=read geom=check gue
 ss=(read,tcheck) scf=(maxcycle=1)
 ----------------------------------------------------------------------
 -----
 title
 -----
 Structure from the checkpoint file:  "Grambow2020_wb97xd3_007823_forward_mol1.chk"
 Charge =  0 Multiplicity = 1

                         Standard orientation:
 ---------------------------------------------------------------------
 Center     Atomic      Atomic             Coordinates (Angstroms)
 Number     Number       Type             X           Y           Z
 ---------------------------------------------------------------------
      1          6           0       -2.104111   -0.324078    0.020322
      2          6           0       -0.659434   -0.463251    0.466596
      3          6           0        0.217067   -1.414243   -0.373860
      4          6           0        1.653487   -0.934119   -0.323578
      5          6           0        1.566996    0.332276    0.263714
      6          6           0        0.149740    0.845119    0.488129
      7          8           0       -0.169354    1.775780   -0.531163
      8          1           0       -2.170649    0.065954   -0.996853
      9          1           0       -2.605890   -1.293393    0.040693
     10          1           0       -2.658994    0.356170    0.669124
     11          1           0       -0.646962   -0.840385    1.496132
     12          1           0       -0.049475   -1.368673   -1.438832
     13          1           0        0.108727   -2.463357   -0.095296
     14          1           0        1.995060   -0.672355    0.921497
     15          1           0        2.426395    0.991211    0.372560
     16          1           0        0.024185    1.396380    1.420498
     17          1           0       -0.010035    1.371981   -1.388150
 ---------------------------------------------------------------------

 SCF Done:  E(RHF) =  -308.116864347     A.U. after    2 cycles

 The electronic state is 1-A.
 Alpha  occ. eigenvalues --  -20.56350 -11.30176 -11.28319 -11.24134 -11.23996
 Alpha  occ. eigenvalues --  -11.23413 -11.23009  -1.46777  -1.16702  -1.04547
 Alpha  occ. eigenvalues --   -0.96195  -0.92417  -0.79836  -0.74812  -0.72055
 Alpha  occ. eigenvalues --   -0.66279  -0.63189  -0.59754  -0.58374  -0.56502
 Alpha  occ. eigenvalues --   -0.53277  -0.53083  -0.49709  -0.48657  -0.47145
 Alpha  occ. eigenvalues --   -0.44905  -0.34480
 Alpha virt. eigenvalues --    0.03028   0.03558   0.03856   0.04167   0.05695
 Alpha virt. eigenvalues --    0.06037   0.06463   0.06897   0.07549   0.09326
 Alpha virt. eigenvalues --    0.11021   0.11286   0.12567   0.13871   0.14307

 Mulliken charges:
               1
     1  C   -0.010866
     2  C   -1.218667
     3  C    0.018118
     4  C   -0.937927
     5  C    0.288002
     6  C    1.422323
     7  O   -1.404442
     8  H    0.199493
     9  H    0.180529
    10  H    0.175388
    11  H    0.124206
    12  H    0.191569
    13  H    0.137251
    14  H    0.457860
    15  H   -0.007445
    16  H    0.103016
    17  H    0.281592
 Sum of Mulliken charges =  -0.00000

 Dipole moment (field-independent basis, Debye):
    X=             -1.2647    Y=              0.2203    Z=              1.3240  Tot=              1.8441

 Test job not archived.
 1\1\GINC-SE335\SP\RHF\Aug-CC-pVDZ\C6H10O1\OHZDE\09-Apr-2025\0\\#t hf a
 ug-cc-pvdz iop(5/13=1,5/36=2,99/5=2) pseudo=read geom=check guess=(rea
 d,tcheck) scf=(maxcycle=1)\\title\\0,1\C,0,1.84723141,-0.5594999,0.190
 67415\C,0,0.51423151,0.11285182,0.46757546\C,0,0.14834737,1.2910388,-0
 .45817216\C,0,-1.3599152,1.37162154,-0.58064537\C,0,-1.81087568,0.1809
 7126,-0.00173721\C,0,-0.71566408,-0.80733906,0.38002062\O,0,-0.6482307
 ,-1.82247663,-0.60580722\H,0,1.8796848,-0.97932272,-0.81624761\H,0,2.6
 6411265,0.15914366,0.28025971\H,0,2.03704469,-1.37435925,0.89178238\H,

 Normal termination of Gaussian 16 at Wed Apr  9 03:45:50 2025.
