 Gaussian 16, Revision C.01,

 ----------------------------------------------------------------------
 #t hf aug-cc-pvdz symm=none int=(grid=ultrafine) guess=(read,tcheck) s
 table=(opt,rrhf)
 ----------------------------------------------------------------------
 -----
 title
 -----
 Symbolic Z-matrix:
 Charge =  0 Multiplicity = 1

 SCF Done:  E(RHF) =  -322.472423165     A.U. after   16 cycles
 Normal termination of Gaussian 16 at Wed Apr  9 03:39:31 2025.
 Gaussian 16:  ES64L-G16RevC.01  3-Jul-2019

 ----------------------------------------------------------------------
 #t hf aug-cc-pvdz iop(5/13=1,5/36=2,99/5=2) pseudo=read geom=check gue
 ss=(read,tcheck) scf=(maxcycle=1)
 ----------------------------------------------------------------------
 -----
 title
 -----
 Structure from the checkpoint file:  "Grambow2020_wb97xd3_007379_reverse_mol1.chk"
 Charge =  0 Multiplicity = 1

                         Standard orientation:
 ---------------------------------------------------------------------
 Center     Atomic      Atomic             Coordinates (Angstroms)
 Number     Number       Type             X           Y           Z
 ---------------------------------------------------------------------
      1          6           0        1.496191   -0.726062    0.584321
      2          6           0        0.287355   -1.002651   -0.257662
      3          6           0       -1.794138   -0.831778   -0.393049
      4          8           0       -0.853449   -0.051696    0.638108
      5          6           0       -0.562255    1.229134    0.278098
      6          7           0        0.524220    1.438872   -0.320822
      7          6           0        1.155573    0.171116   -0.581051
      8          1           0        1.384468   -0.325942    1.582176
      9          1           0        2.320615   -1.416605    0.454821
     10          1           0        0.242077   -1.888140   -0.864314
     11          1           0       -2.635899   -1.143329    0.228879
     12          1           0       -2.113598   -0.056597   -1.098343
     13          1           0       -1.310897    1.978268    0.520707
     14          1           0        1.774931    0.155251   -1.466980
 ---------------------------------------------------------------------

 SCF Done:  E(RHF) =  -322.802640001     A.U. after    2 cycles

 The electronic state is 1-A.
 Alpha  occ. eigenvalues --  -20.61291 -15.51542 -11.35545 -11.35246 -11.29591
 Alpha  occ. eigenvalues --  -11.26430 -11.23299  -1.53275  -1.26417  -1.16085
 Alpha  occ. eigenvalues --   -0.92543  -0.88413  -0.84030  -0.82260  -0.74061
 Alpha  occ. eigenvalues --   -0.69733  -0.66122  -0.63883  -0.60466  -0.55170
 Alpha  occ. eigenvalues --   -0.54445  -0.53354  -0.49943  -0.46092  -0.41464
 Alpha  occ. eigenvalues --   -0.29836
 Alpha virt. eigenvalues --    0.03359   0.03976   0.04216   0.04707   0.05694
 Alpha virt. eigenvalues --    0.05937   0.06308   0.09706   0.09857   0.10841
 Alpha virt. eigenvalues --    0.11200   0.12892   0.13770   0.14067   0.14219

 Mulliken charges:
               1
     1  C    0.289379
     2  C    1.170456
     3  C    0.084862
     4  O   -1.205751
     5  C    0.000344
     6  N    0.844239
     7  C   -0.702120
     8  H   -0.093259
     9  H   -0.076396
    10  H   -0.109938
    11  H   -0.044113
    12  H    0.030930
    13  H   -0.007726
    14  H   -0.180907
 Sum of Mulliken charges =  -0.00000

 Dipole moment (field-independent basis, Debye):
    X=              1.1058    Y=             -0.5867    Z=              0.8405  Tot=              1.5078

 Test job not archived.
 1\1\GINC-SE105\SP\RHF\Aug-CC-pVDZ\C5H7N1O1\OHZDE\09-Apr-2025\0\\#t hf
 aug-cc-pvdz iop(5/13=1,5/36=2,99/5=2) pseudo=read geom=check guess=(re
 ad,tcheck) scf=(maxcycle=1)\\title\\0,1\C,0,-1.47659598,-0.76548415,0.
 4173202\C,0,-0.76832746,0.31950131,-0.33625898\C,0,0.72647227,1.781972
 18,-0.25323545\O,0,0.53744147,0.57354529,0.77665727\C,0,1.36191143,-0.
 4881994,0.55785578\N,0,0.91056996,-1.4554602,-0.10834298\C,0,-0.402644
 65,-1.10868305,-0.58661419\H,0,-1.26343913,-0.92939886,1.46421579\H,0,
 -2.50454305,-0.94023065,0.12392101\H,0,-1.30401206,0.92436663,-1.04431

 Normal termination of Gaussian 16 at Wed Apr  9 03:39:36 2025.
