 Gaussian 16, Revision C.01,

 ----------------------------------------------------------------------
 #t hf aug-cc-pvdz symm=none int=(grid=ultrafine) guess=(read,tcheck) s
 table=(opt,rrhf)
 ----------------------------------------------------------------------
 -----
 title
 -----
 Symbolic Z-matrix:
 Charge =  0 Multiplicity = 1

 SCF Done:  E(RHF) =  -354.568169135     A.U. after   17 cycles
 Normal termination of Gaussian 16 at Wed Apr  9 18:19:03 2025.
 Gaussian 16:  ES64L-G16RevC.01  3-Jul-2019

 ----------------------------------------------------------------------
 #t hf aug-cc-pvdz iop(5/13=1,5/36=2,99/5=2) pseudo=read geom=check gue
 ss=(read,tcheck) scf=(maxcycle=1)
 ----------------------------------------------------------------------
 -----
 title
 -----
 Structure from the checkpoint file:  "Grambow2020_wb97xd3_007310_reverse_mol1.chk"
 Charge =  0 Multiplicity = 1

                         Standard orientation:
 ---------------------------------------------------------------------
 Center     Atomic      Atomic             Coordinates (Angstroms)
 Number     Number       Type             X           Y           Z
 ---------------------------------------------------------------------
      1          8           0        2.032585    0.671554   -0.067816
      2          6           0        1.701456   -0.672895    0.006514
      3          6           0        0.245845   -0.469596    0.047261
      4          7           0        0.169123    0.908460   -0.087493
      5          7           0       -1.625255    0.871410    0.075022
      6          6           0       -1.878774   -0.385546   -0.049187
      7          7           0       -0.817860   -1.218630    0.053051
      8          1           0        0.343885    1.565631    0.654849
      9          1           0        2.064944   -1.183413    0.913293
     10          1           0        2.000421   -1.292679   -0.854216
     11          1           0       -2.303593    1.569203   -0.198959
     12          1           0       -2.859564   -0.791625   -0.284042
 ---------------------------------------------------------------------

 SCF Done:  E(RHF) =  -354.926934166     A.U. after    2 cycles

 The electronic state is 1-A.
 Alpha  occ. eigenvalues --  -20.45672 -15.64447 -15.56133 -15.52504 -11.36971
 Alpha  occ. eigenvalues --  -11.36655 -11.27527  -1.40344  -1.34266  -1.21562
 Alpha  occ. eigenvalues --   -1.19498  -0.98977  -0.90334  -0.85469  -0.79600
 Alpha  occ. eigenvalues --   -0.76073  -0.69248  -0.64834  -0.60143  -0.58640
 Alpha  occ. eigenvalues --   -0.55751  -0.52617  -0.51032  -0.47636  -0.36597
 Alpha  occ. eigenvalues --   -0.35522
 Alpha virt. eigenvalues --    0.02113   0.03869   0.04285   0.05079   0.05637
 Alpha virt. eigenvalues --    0.06122   0.08179   0.08732   0.09484   0.09958
 Alpha virt. eigenvalues --    0.12092   0.13208   0.13930   0.14408   0.15512

 Mulliken charges:
               1
     1  O   -1.389527
     2  C    1.064541
     3  C   -1.913307
     4  N    0.617511
     5  N    0.463077
     6  C   -0.430897
     7  N    0.859374
     8  H    0.290739
     9  H    0.195821
    10  H    0.219871
    11  H    0.037773
    12  H   -0.014976
 Sum of Mulliken charges =   0.00000

 Dipole moment (field-independent basis, Debye):
    X=             -5.1904    Y=              0.0746    Z=              0.6355  Tot=              5.2297

 Test job not archived.
 1\1\GINC-SE173\SP\RHF\Aug-CC-pVDZ\C3H5N3O1\OHZDE\09-Apr-2025\0\\#t hf
 aug-cc-pvdz iop(5/13=1,5/36=2,99/5=2) pseudo=read geom=check guess=(re
 ad,tcheck) scf=(maxcycle=1)\\title\\0,1\O,0,-1.96893929,0.9933552,-0.4
 5545204\C,0,-1.8453618,-0.24366332,0.15873809\C,0,-0.38313008,-0.33145
 665,0.03238917\N,0,-0.09492109,0.89676603,-0.54336147\N,0,1.65679923,0
 .4876863,-0.65155237\C,0,1.73189708,-0.56330325,0.08967697\N,0,0.55553
 88,-1.14834454,0.41205748\H,0,-0.22774704,1.11661389,-1.51676261\H,0,-
 2.34826131,-1.06905572,-0.37118635\H,0,-2.16516376,-0.29448457,1.21207

 Normal termination of Gaussian 16 at Wed Apr  9 18:19:08 2025.
