 Gaussian 16, Revision C.01,

 ----------------------------------------------------------------------
 #t hf aug-cc-pvdz symm=none int=(grid=ultrafine) guess=(read,tcheck) s
 table=(opt,rrhf)
 ----------------------------------------------------------------------
 -----
 title
 -----
 Symbolic Z-matrix:
 Charge =  0 Multiplicity = 1

 SCF Done:  E(RHF) =  -353.434982253     A.U. after   18 cycles
 Normal termination of Gaussian 16 at Wed Apr  9 18:39:14 2025.
 Gaussian 16:  ES64L-G16RevC.01  3-Jul-2019

 ----------------------------------------------------------------------
 #t hf aug-cc-pvdz iop(5/13=1,5/36=2,99/5=2) pseudo=read geom=check gue
 ss=(read,tcheck) scf=(maxcycle=1)
 ----------------------------------------------------------------------
 -----
 title
 -----
 Structure from the checkpoint file:  "Grambow2020_wb97xd3_007948_reverse_mol2.chk"
 Charge =  0 Multiplicity = 1

                         Standard orientation:
 ---------------------------------------------------------------------
 Center     Atomic      Atomic             Coordinates (Angstroms)
 Number     Number       Type             X           Y           Z
 ---------------------------------------------------------------------
      1          8           0       -1.650209   -1.364796   -0.015093
      2          6           0       -0.675466   -0.420509    0.015891
      3          6           0        0.653587   -0.988760    0.021400
      4          7           0        1.688252   -0.206012   -0.005901
      5          7           0        2.571478    0.486470   -0.019097
      6          6           0       -1.165038    2.019183   -0.190330
      7          7           0       -0.932362    0.811644    0.075589
      8          1           0       -2.500718   -0.927554   -0.114001
      9          1           0        0.831930   -2.050222    0.051938
     10          1           0       -1.299619    2.591941    0.746903
 ---------------------------------------------------------------------

 SCF Done:  E(RHF) =  -353.774730088     A.U. after    2 cycles

 The electronic state is 1-A.
 Alpha  occ. eigenvalues --  -20.60983 -15.70318 -15.63602 -15.54630 -11.38889
 Alpha  occ. eigenvalues --  -11.30319 -11.27426  -1.53430  -1.51782  -1.28889
 Alpha  occ. eigenvalues --   -1.19556  -1.04069  -0.90693  -0.77807  -0.76829
 Alpha  occ. eigenvalues --   -0.75108  -0.72715  -0.68870  -0.65710  -0.64189
 Alpha  occ. eigenvalues --   -0.60575  -0.53628  -0.51456  -0.41031  -0.30525
 Alpha virt. eigenvalues --    0.03138   0.03844   0.05210   0.05638   0.05961
 Alpha virt. eigenvalues --    0.07667   0.08524   0.09689   0.10101   0.10742
 Alpha virt. eigenvalues --    0.11965   0.12965   0.13176   0.15128   0.15285

 Mulliken charges:
               1
     1  O   -1.269379
     2  C    0.054758
     3  C    0.054798
     4  N   -0.869436
     5  N    1.022637
     6  C   -0.455427
     7  N    0.933044
     8  H    0.367607
     9  H    0.016324
    10  H    0.145074
 Sum of Mulliken charges =   0.00000

 Dipole moment (field-independent basis, Debye):
    X=             -0.6389    Y=             -2.8944    Z=              1.3862  Tot=              3.2722

 Test job not archived.
 1\1\GINC-SE115\SP\RHF\Aug-CC-pVDZ\C3H3N3O1\OHZDE\09-Apr-2025\0\\#t hf
 aug-cc-pvdz iop(5/13=1,5/36=2,99/5=2) pseudo=read geom=check guess=(re
 ad,tcheck) scf=(maxcycle=1)\\title\\0,1\O,0,1.90689313,-0.3364135,-0.0
 1450071\C,0,0.57175877,-0.09166873,0.00222585\C,0,0.26264183,1.3154982
 ,0.11905844\N,0,-0.97427377,1.7070288,0.0923154\N,0,-2.05019085,2.0263
 8204,0.07784452\C,0,-1.12424945,-1.87915818,-0.40118751\N,0,-0.2835023
 5,-1.01611613,-0.03882742\H,0,2.04731113,-1.27129411,-0.18945412\H,0,1
 .02221202,2.07004097,0.23376264\H,0,-1.53686246,-2.39809737,0.48482791

 Normal termination of Gaussian 16 at Wed Apr  9 18:39:18 2025.
