 Gaussian 16, Revision C.01,

 ----------------------------------------------------------------------
 #t hf aug-cc-pvdz symm=none int=(grid=ultrafine) guess=(read,tcheck) s
 table=(opt,rrhf)
 ----------------------------------------------------------------------
 -----
 title
 -----
 Symbolic Z-matrix:
 Charge =  0 Multiplicity = 1

 SCF Done:  E(RHF) =  -270.020167757     A.U. after   14 cycles

 1\1\GINC-SE041\Stability\RHF\Aug-CC-pVDZ\C5H10O1\OHZDE\09-Apr-2025\0\\
 #t hf aug-cc-pvdz symm=none int=(grid=ultrafine) guess=(read,tcheck) s
 table=(opt,rrhf)\\title\\0,1\C,0,2.3890721,-0.84159026,-0.41205604\C,0
 ,-0.58172724,1.51103771,0.70787815\C,0,-0.03190517,0.85051497,1.711944
 77\O,0,0.46141812,0.25158471,2.60492989\C,0,-1.3634911,0.84955819,-0.4
 1714438\C,0,-1.5573515,-0.66087266,-0.23656854\H,0,3.46270449,-0.75066
 046,-0.6169037\H,0,2.22079099,-0.84241606,0.67103969\H,0,2.01457168,-1
 .77820843,-0.84356342\H,0,1.85712999,0.00726531,-0.85814567\H,0,-0.434

 Normal termination of Gaussian 16 at Wed Apr  9 15:47:56 2025.
 Gaussian 16:  ES64L-G16RevC.01  3-Jul-2019

 ----------------------------------------------------------------------
 #t hf aug-cc-pvdz iop(5/13=1,5/36=2,99/5=2) pseudo=read geom=check gue
 ss=(read,tcheck) scf=(maxcycle=1)
 ----------------------------------------------------------------------
 -----
 title
 -----
 Structure from the checkpoint file:  "Grambow2020_b97d3_006749_reverse_mol2.chk"
 Charge =  0 Multiplicity = 1

                         Standard orientation:
 ---------------------------------------------------------------------
 Center     Atomic      Atomic             Coordinates (Angstroms)
 Number     Number       Type             X           Y           Z
 ---------------------------------------------------------------------
      1          6           0        2.645489   -0.943247   -0.235386
      2          6           0       -0.948634    0.573232   -0.865731
      3          6           0       -0.199422    1.318505   -0.072009
      4          8           0        0.474928    1.977583    0.642397
      5          6           0       -1.460094   -0.811306   -0.497157
      6          6           0       -1.120007   -1.239940    0.935395
      7          1           0        3.620742   -0.953860   -0.737069
      8          1           0        2.493519    0.027092    0.251196
      9          1           0        2.614848   -1.741215    0.516951
     10          1           0        1.851017   -1.103674   -0.974028
     11          1           0       -1.182842    0.995707   -1.843146
     12          1           0       -1.043292   -1.544022   -1.207780
     13          1           0       -2.553047   -0.829052   -0.636381
     14          1           0       -1.547639   -0.540314    1.667539
     15          1           0       -1.524092   -2.239589    1.143467
     16          1           0       -0.032634   -1.275204    1.089397
 ---------------------------------------------------------------------

 SCF Done:  E(RHF) =  -270.304695733     A.U. after    2 cycles

 The electronic state is 1-A.
 Alpha  occ. eigenvalues --  -20.60637 -11.38410 -11.26145 -11.25162 -11.23875
 Alpha  occ. eigenvalues --  -11.21964  -1.53138  -1.09907  -0.99523  -0.94097
 Alpha  occ. eigenvalues --   -0.86549  -0.73901  -0.67544  -0.64331  -0.63903
 Alpha  occ. eigenvalues --   -0.61260  -0.56833  -0.54713  -0.54658  -0.54384
 Alpha  occ. eigenvalues --   -0.52166  -0.51524  -0.51315  -0.34979
 Alpha virt. eigenvalues --    0.03261   0.03637   0.03996   0.04592   0.05769
 Alpha virt. eigenvalues --    0.06612   0.07049   0.07620   0.08982   0.09694
 Alpha virt. eigenvalues --    0.10867   0.11820   0.13268   0.14020   0.14282

 Mulliken charges:
               1
     1  C   -0.306824
     2  C    0.751323
     3  C    0.319965
     4  O   -0.946662
     5  C   -0.593996
     6  C   -0.302774
     7  H    0.023803
     8  H    0.089817
     9  H    0.095791
    10  H    0.092869
    11  H   -0.079794
    12  H    0.197839
    13  H    0.186449
    14  H    0.229847
    15  H    0.110245
    16  H    0.132100
 Sum of Mulliken charges =  -0.00000

 Dipole moment (field-independent basis, Debye):
    X=             -1.2344    Y=             -1.4373    Z=             -1.0646  Tot=              2.1732

 Test job not archived.
 1\1\GINC-SE041\SP\RHF\Aug-CC-pVDZ\C5H10O1\OHZDE\09-Apr-2025\0\\#t hf a
 ug-cc-pvdz iop(5/13=1,5/36=2,99/5=2) pseudo=read geom=check guess=(rea
 d,tcheck) scf=(maxcycle=1)\\title\\0,1\C,0,2.3890721,-0.84159026,-0.41
 205604\C,0,-0.58172724,1.51103771,0.70787815\C,0,-0.03190517,0.8505149
 7,1.71194477\O,0,0.46141812,0.25158471,2.60492989\C,0,-1.3634911,0.849
 55819,-0.41714438\C,0,-1.5573515,-0.66087266,-0.23656854\H,0,3.4627044
 9,-0.75066046,-0.6169037\H,0,2.22079099,-0.84241606,0.67103969\H,0,2.0
 1457168,-1.77820843,-0.84356342\H,0,1.85712999,0.00726531,-0.85814567\

 Normal termination of Gaussian 16 at Wed Apr  9 15:48:01 2025.
