 Gaussian 16, Revision C.01,

 ----------------------------------------------------------------------
 #t hf aug-cc-pvdz symm=none int=(grid=ultrafine) guess=(read,tcheck) s
 table=(opt,rrhf)
 ----------------------------------------------------------------------
 -----
 title
 -----
 Symbolic Z-matrix:
 Charge =  0 Multiplicity = 1

 SCF Done:  E(RHF) =  -380.567641180     A.U. after   17 cycles
 Normal termination of Gaussian 16 at Wed Apr  9 18:23:50 2025.
 Gaussian 16:  ES64L-G16RevC.01  3-Jul-2019

 ----------------------------------------------------------------------
 #t hf aug-cc-pvdz iop(5/13=1,5/36=2,99/5=2) pseudo=read geom=check gue
 ss=(read,tcheck) scf=(maxcycle=1)
 ----------------------------------------------------------------------
 -----
 title
 -----
 Structure from the checkpoint file:  "Grambow2020_wb97xd3_007515_forward_mol1.chk"
 Charge =  0 Multiplicity = 1

                         Standard orientation:
 ---------------------------------------------------------------------
 Center     Atomic      Atomic             Coordinates (Angstroms)
 Number     Number       Type             X           Y           Z
 ---------------------------------------------------------------------
      1          8           0        1.547222    1.268053   -0.198391
      2          6           0        1.987208   -0.048029    0.035478
      3          6           0        0.910494   -1.012335   -0.412271
      4          6           0       -0.897922   -1.092271   -0.023038
      5          8           0       -0.164849   -0.679730    0.956381
      6          6           0       -1.922665   -0.072109   -0.460302
      7          8           0       -1.857909    1.175700    0.169901
      8          1           0        2.210882    1.885842    0.110085
      9          1           0        2.249638   -0.218992    1.082796
     10          1           0        2.863681   -0.287781   -0.586449
     11          1           0        1.183462   -2.053422   -0.314993
     12          1           0        0.624554   -0.743327   -1.433408
     13          1           0       -1.852997    0.024987   -1.552357
     14          1           0       -2.892375   -0.549337   -0.260090
     15          1           0       -1.045241    1.178314    0.692090
 ---------------------------------------------------------------------

 SCF Done:  E(RHF) =  -380.952740269     A.U. after    2 cycles

 The electronic state is 1-A.
 Alpha  occ. eigenvalues --  -20.59198 -20.57430 -20.52645 -11.35520 -11.31915
 Alpha  occ. eigenvalues --  -11.29293 -11.26907  -1.50372  -1.47839  -1.43081
 Alpha  occ. eigenvalues --   -1.05880  -0.96956  -0.88292  -0.77722  -0.74830
 Alpha  occ. eigenvalues --   -0.69239  -0.68219  -0.64280  -0.63043  -0.61372
 Alpha  occ. eigenvalues --   -0.60062  -0.55806  -0.53270  -0.51732  -0.51666
 Alpha  occ. eigenvalues --   -0.46878  -0.42731  -0.32034
 Alpha virt. eigenvalues --    0.02508   0.03347   0.04084   0.05025   0.06074
 Alpha virt. eigenvalues --    0.06522   0.07621   0.08142   0.09876   0.10820
 Alpha virt. eigenvalues --    0.11786   0.12366   0.13818   0.14158   0.14728

 Mulliken charges:
               1
     1  O   -1.161285
     2  C    0.750748
     3  C   -0.203979
     4  C    0.202336
     5  O   -0.994094
     6  C    0.717696
     7  O   -1.173340
     8  H    0.334546
     9  H    0.150463
    10  H    0.140654
    11  H    0.106685
    12  H    0.367406
    13  H    0.202039
    14  H    0.167234
    15  H    0.392889
 Sum of Mulliken charges =  -0.00000

 Dipole moment (field-independent basis, Debye):
    X=              4.7744    Y=             -0.5313    Z=             -0.6974  Tot=              4.8542

 Test job not archived.
 1\1\GINC-SE131\SP\RHF\Aug-CC-pVDZ\C4H8O3\OHZDE\09-Apr-2025\0\\#t hf au
 g-cc-pvdz iop(5/13=1,5/36=2,99/5=2) pseudo=read geom=check guess=(read
 ,tcheck) scf=(maxcycle=1)\\title\\0,1\O,0,-0.82175202,1.53068723,-0.49
 561204\C,0,-1.51085835,0.31103643,-0.62955791\C,0,-0.99780989,-0.65947
 981,0.41186328\C,0,0.72221077,-1.18776561,0.84856167\O,0,0.54433562,-0
 .95625045,-0.40905802\C,0,1.77054589,-0.29377319,1.46807937\O,0,2.3028
 1941,0.69895189,0.63768219\H,0,-1.11948905,2.14113743,-1.17086664\H,0,
 -1.41687798,-0.11181268,-1.63322085\H,0,-2.58127281,0.43532478,-0.4031

 Normal termination of Gaussian 16 at Wed Apr  9 18:23:55 2025.
