 Gaussian 16, Revision C.01,

 ----------------------------------------------------------------------
 #t hf aug-cc-pvdz symm=none int=(grid=ultrafine) guess=(read,tcheck) s
 table=(opt,rrhf)
 ----------------------------------------------------------------------
 -----
 title
 -----
 Symbolic Z-matrix:
 Charge =  0 Multiplicity = 1

 SCF Done:  E(RHF) =  -322.521017433     A.U. after   18 cycles
 Normal termination of Gaussian 16 at Wed Apr  9 03:39:49 2025.
 Gaussian 16:  ES64L-G16RevC.01  3-Jul-2019

 ----------------------------------------------------------------------
 #t hf aug-cc-pvdz iop(5/13=1,5/36=2,99/5=2) pseudo=read geom=check gue
 ss=(read,tcheck) scf=(maxcycle=1)
 ----------------------------------------------------------------------
 -----
 title
 -----
 Structure from the checkpoint file:  "Grambow2020_wb97xd3_007381_reverse_mol1.chk"
 Charge =  0 Multiplicity = 1

                         Standard orientation:
 ---------------------------------------------------------------------
 Center     Atomic      Atomic             Coordinates (Angstroms)
 Number     Number       Type             X           Y           Z
 ---------------------------------------------------------------------
      1          6           0       -1.872333   -0.019652    0.742501
      2          6           0       -0.377545    1.134282   -0.472771
      3          6           0        0.914794    1.184254    0.136631
      4          8           0        1.620415    0.071361    0.314727
      5          6           0        1.011831   -1.145053    0.038679
      6          7           0       -0.160324   -1.333341   -0.365897
      7          6           0       -1.092005   -0.208934   -0.453180
      8          1           0       -1.362890    0.036282    1.695865
      9          1           0       -2.950752   -0.078885    0.731704
     10          1           0       -0.953219    2.048186   -0.534642
     11          1           0        1.364875    2.066440    0.573895
     12          1           0        0.543419    1.306635   -1.269161
     13          1           0        1.716026   -1.943605    0.235484
     14          1           0       -1.706964   -0.341929   -1.340842
 ---------------------------------------------------------------------

 SCF Done:  E(RHF) =  -322.850925771     A.U. after    2 cycles

 The electronic state is 1-A.
 Alpha  occ. eigenvalues --  -20.64763 -15.50781 -11.40098 -11.34694 -11.30722
 Alpha  occ. eigenvalues --  -11.28021 -11.16219  -1.58875  -1.24887  -1.14829
 Alpha  occ. eigenvalues --   -1.00578  -0.95007  -0.83523  -0.77986  -0.74783
 Alpha  occ. eigenvalues --   -0.71060  -0.70420  -0.65523  -0.62831  -0.58778
 Alpha  occ. eigenvalues --   -0.56173  -0.54337  -0.49429  -0.46122  -0.42851
 Alpha  occ. eigenvalues --   -0.21917
 Alpha virt. eigenvalues --    0.02201   0.03353   0.03882   0.04591   0.05263
 Alpha virt. eigenvalues --    0.05794   0.06404   0.07002   0.09312   0.10431
 Alpha virt. eigenvalues --    0.12173   0.12483   0.13132   0.13653   0.14153

 Mulliken charges:
               1
     1  C    0.085499
     2  C   -0.218651
     3  C    0.832194
     4  O   -1.310930
     5  C    0.176684
     6  N    0.875382
     7  C   -0.502624
     8  H   -0.171203
     9  H   -0.175292
    10  H   -0.065177
    11  H   -0.036601
    12  H    0.558232
    13  H   -0.060958
    14  H    0.013444
 Sum of Mulliken charges =  -0.00000

 Dipole moment (field-independent basis, Debye):
    X=              4.2796    Y=              3.7325    Z=             -1.3985  Tot=              5.8483

 Test job not archived.
 1\1\GINC-SE109\SP\RHF\Aug-CC-pVDZ\C5H7N1O1\OHZDE\09-Apr-2025\0\\#t hf
 aug-cc-pvdz iop(5/13=1,5/36=2,99/5=2) pseudo=read geom=check guess=(re
 ad,tcheck) scf=(maxcycle=1)\\title\\0,1\C,0,-1.58411522,-0.79560497,0.
 39141106\C,0,-0.33745684,0.71808876,-0.70285278\C,0,0.60116161,1.38356
 051,0.14576344\O,0,1.58273021,0.70328639,0.73048581\C,0,1.58039107,-0.
 68030842,0.62140428\N,0,0.73831844,-1.39374809,0.02558723\C,0,-0.47335
 241,-0.78693768,-0.52538913\H,0,-1.43851255,-0.41132792,1.3927582\H,0,
 -2.50808691,-1.30427867,0.15872949\H,0,-1.165152,1.28889654,-1.1022888

 Normal termination of Gaussian 16 at Wed Apr  9 03:39:56 2025.
