 Gaussian 16, Revision C.01,

 ----------------------------------------------------------------------
 #t hf aug-cc-pvdz symm=none int=(grid=ultrafine) guess=(read,tcheck) s
 table=(opt,rrhf)
 ----------------------------------------------------------------------
 -----
 title
 -----
 Symbolic Z-matrix:
 Charge =  0 Multiplicity = 1

 SCF Done:  E(RHF) =  -268.669133871     A.U. after   16 cycles
 Normal termination of Gaussian 16 at Wed Apr  9 03:05:29 2025.
 Gaussian 16:  ES64L-G16RevC.01  3-Jul-2019

 ----------------------------------------------------------------------
 #t hf aug-cc-pvdz iop(5/13=1,5/36=2,99/5=2) pseudo=read geom=check gue
 ss=(read,tcheck) scf=(maxcycle=1)
 ----------------------------------------------------------------------
 -----
 title
 -----
 Structure from the checkpoint file:  "Grambow2020_b97d3_006486_forward_mol1.chk"
 Charge =  0 Multiplicity = 1

                         Standard orientation:
 ---------------------------------------------------------------------
 Center     Atomic      Atomic             Coordinates (Angstroms)
 Number     Number       Type             X           Y           Z
 ---------------------------------------------------------------------
      1          8           0       -2.148578   -0.188586   -0.001651
      2          6           0       -0.926198   -0.088593   -0.028167
      3          6           0        0.041978   -1.176770   -0.195366
      4          6           0        1.440854   -0.983615    0.188581
      5          6           0        1.266695    0.959240   -0.161228
      6          6           0       -0.173606    1.265733    0.183128
      7          1           0       -0.398361   -2.167144   -0.040721
      8          1           0        0.864711    0.051083   -0.978640
      9          1           0        1.774551   -1.288473    1.203924
     10          1           0        2.254022   -1.121182   -0.527312
     11          1           0        1.743289    1.524695   -0.981434
     12          1           0        1.977995    1.048290    0.677542
     13          1           0       -0.319567    1.586233    1.222573
     14          1           0       -0.606368    2.019218   -0.484412
 ---------------------------------------------------------------------

 SCF Done:  E(RHF) =  -268.950600058     A.U. after    2 cycles

 The electronic state is 1-A.
 Alpha  occ. eigenvalues --  -20.48642 -11.34324 -11.32062 -11.29207 -11.25295
 Alpha  occ. eigenvalues --  -11.23220  -1.41837  -1.14756  -1.01337  -0.93539
 Alpha  occ. eigenvalues --   -0.84601  -0.73097  -0.70865  -0.66576  -0.63209
 Alpha  occ. eigenvalues --   -0.61263  -0.56237  -0.55405  -0.54752  -0.48374
 Alpha  occ. eigenvalues --   -0.46901  -0.37888  -0.30904
 Alpha virt. eigenvalues --    0.01977   0.02896   0.03376   0.04562   0.05867
 Alpha virt. eigenvalues --    0.06178   0.06882   0.07270   0.07650   0.09800
 Alpha virt. eigenvalues --    0.12538   0.13553   0.14030   0.14338   0.14876

 Mulliken charges:
               1
     1  O   -1.459849
     2  C    1.124663
     3  C   -0.095182
     4  C   -0.203909
     5  C   -0.691893
     6  C   -0.436281
     7  H   -0.108808
     8  H    1.045287
     9  H   -0.020455
    10  H    0.162426
    11  H    0.064663
    12  H    0.194816
    13  H    0.202652
    14  H    0.221871
 Sum of Mulliken charges =  -0.00000

 Dipole moment (field-independent basis, Debye):
    X=              6.5138    Y=              1.1301    Z=              0.5604  Tot=              6.6348

 Test job not archived.
 1\1\GINC-SE461\SP\RHF\Aug-CC-pVDZ\C5H8O1\OHZDE\09-Apr-2025\0\\#t hf au
 g-cc-pvdz iop(5/13=1,5/36=2,99/5=2) pseudo=read geom=check guess=(read
 ,tcheck) scf=(maxcycle=1)\\title\\0,1\O,0,-0.71087591,2.52743922,0.300
 88826\C,0,-0.41714576,1.34858773,0.13075262\C,0,-1.34093342,0.211741,0
 .07037035\C,0,-0.84540384,-1.15127749,0.26584297\C,0,0.93100509,-0.601
 80633,-0.41960404\C,0,1.05757092,0.84326778,0.00786269\H,0,-2.33889207
 ,0.45222871,0.45102326\H,0,-0.17687598,-0.31745617,-1.00803234\H,0,-0.
 88006824,-1.60366235,1.2804166\H,0,-0.98757311,-1.92500418,-0.4916549\

 Normal termination of Gaussian 16 at Wed Apr  9 03:05:33 2025.
