 Gaussian 16, Revision C.01,

 ----------------------------------------------------------------------
 #t hf aug-cc-pvdz symm=none int=(grid=ultrafine) guess=(read,tcheck) s
 table=(opt,rrhf)
 ----------------------------------------------------------------------
 -----
 title
 -----
 Symbolic Z-matrix:
 Charge =  0 Multiplicity = 1

 SCF Done:  E(RHF) =  -286.720620070     A.U. after   16 cycles
 Normal termination of Gaussian 16 at Wed Apr  9 18:26:31 2025.
 Gaussian 16:  ES64L-G16RevC.01  3-Jul-2019

 ----------------------------------------------------------------------
 #t hf aug-cc-pvdz iop(5/13=1,5/36=2,99/5=2) pseudo=read geom=check gue
 ss=(read,tcheck) scf=(maxcycle=1)
 ----------------------------------------------------------------------
 -----
 title
 -----
 Structure from the checkpoint file:  "Grambow2020_wb97xd3_007560_forward_mol1.chk"
 Charge =  0 Multiplicity = 1

                         Standard orientation:
 ---------------------------------------------------------------------
 Center     Atomic      Atomic             Coordinates (Angstroms)
 Number     Number       Type             X           Y           Z
 ---------------------------------------------------------------------
      1          6           0        0.711506    1.591973   -0.221487
      2          6           0        0.744231    0.126399    0.198266
      3          6           0       -0.522472   -0.312670    0.969165
      4          6           0       -1.761349   -0.178123    0.210501
      5          6           0       -2.760651   -0.075522   -0.442479
      6          6           0        1.125223   -0.869419   -0.954540
      7          7           0        1.925270   -0.455676    0.537208
      8          1           0       -0.178127    1.828573   -0.807430
      9          1           0        1.607154    1.835460   -0.791810
     10          1           0        0.700021    2.216945    0.674087
     11          1           0       -0.585331    0.292022    1.878160
     12          1           0       -0.385258   -1.348288    1.285458
     13          1           0       -3.654653    0.015874   -1.012593
     14          1           0        0.382321   -1.659044   -1.010199
     15          1           0        1.321425   -0.313158   -1.864537
     16          1           0        2.096626   -1.374476   -0.668150
 ---------------------------------------------------------------------

 SCF Done:  E(RHF) =  -287.020229967     A.U. after    2 cycles

 The electronic state is 1-A.
 Alpha  occ. eigenvalues --  -15.51114 -11.29380 -11.27923 -11.26358 -11.24843
 Alpha  occ. eigenvalues --  -11.23719 -11.23062  -1.24928  -1.07352  -0.99863
 Alpha  occ. eigenvalues --   -0.96209  -0.92802  -0.77546  -0.72996  -0.67751
 Alpha  occ. eigenvalues --   -0.65147  -0.64262  -0.59518  -0.57614  -0.56541
 Alpha  occ. eigenvalues --   -0.55080  -0.52750  -0.47124  -0.42610  -0.40207
 Alpha  occ. eigenvalues --   -0.38272
 Alpha virt. eigenvalues --    0.03204   0.03881   0.04109   0.04366   0.05752
 Alpha virt. eigenvalues --    0.05907   0.06190   0.07133   0.09234   0.10011
 Alpha virt. eigenvalues --    0.11088   0.11852   0.12167   0.12864   0.13354

 Mulliken charges:
               1
     1  C   -0.440178
     2  C   -2.010524
     3  C   -0.591037
     4  C    0.641398
     5  C    0.225392
     6  C   -0.196493
     7  N    0.801361
     8  H    0.309975
     9  H    0.170310
    10  H    0.210572
    11  H    0.289475
    12  H    0.240727
    13  H   -0.466696
    14  H    0.149598
    15  H    0.158570
    16  H    0.507552
 Sum of Mulliken charges =  -0.00000

 Dipole moment (field-independent basis, Debye):
    X=             -1.4099    Y=              0.1392    Z=             -1.7439  Tot=              2.2468

 Test job not archived.
 1\1\GINC-SE224\SP\RHF\Aug-CC-pVDZ\C6H9N1\OHZDE\09-Apr-2025\0\\#t hf au
 g-cc-pvdz iop(5/13=1,5/36=2,99/5=2) pseudo=read geom=check guess=(read
 ,tcheck) scf=(maxcycle=1)\\title\\0,1\C,0,0.08273055,1.59938116,-0.165
 85956\C,0,-0.60830551,0.24010515,-0.16286938\C,0,0.30894759,-0.9082388
 ,-0.64407194\C,0,1.50174401,-1.10366714,0.1729556\C,0,2.46249961,-1.25
 423418,0.87280811\C,0,-1.35562906,-0.10389492,1.17464303\N,0,-1.934683
 77,0.15309273,-0.44869481\H,0,1.00250857,1.59053524,0.42124015\H,0,-0.
 59471719,2.36171264,0.21709462\H,0,0.34254414,1.86259937,-1.19347303\H

 Normal termination of Gaussian 16 at Wed Apr  9 18:26:37 2025.
