 Gaussian 16, Revision C.01,

 ----------------------------------------------------------------------
 #t hf aug-cc-pvdz symm=none int=(grid=ultrafine) guess=(read,tcheck) s
 table=(opt,rrhf)
 ----------------------------------------------------------------------
 -----
 title
 -----
 Symbolic Z-matrix:
 Charge =  0 Multiplicity = 1

 SCF Done:  E(RHF) =  -323.878218220     A.U. after   15 cycles
 Normal termination of Gaussian 16 at Wed Apr  9 19:14:07 2025.
 Gaussian 16:  ES64L-G16RevC.01  3-Jul-2019

 ----------------------------------------------------------------------
 #t hf aug-cc-pvdz iop(5/13=1,5/36=2,99/5=2) pseudo=read geom=check gue
 ss=(read,tcheck) scf=(maxcycle=1)
 ----------------------------------------------------------------------
 -----
 title
 -----
 Structure from the checkpoint file:  "Grambow2020_wb97xd3_008935_reverse_mol2.chk"
 Charge =  0 Multiplicity = 1

                         Standard orientation:
 ---------------------------------------------------------------------
 Center     Atomic      Atomic             Coordinates (Angstroms)
 Number     Number       Type             X           Y           Z
 ---------------------------------------------------------------------
      1          6           0        1.085443   -1.045251    0.962513
      2          6           0       -1.169402    0.946516    0.467091
      3          6           0        0.306587    1.103148    0.196527
      4          7           0        0.924347   -0.157752   -0.172486
      5          6           0        2.181020    0.038169   -0.863057
      6          6           0       -1.877210    0.011129   -0.118126
      7          8           0       -2.512449   -0.822541   -0.607742
      8          1           0        1.816006   -0.657794    1.693824
      9          1           0        1.429260   -2.022215    0.619782
     10          1           0        0.131924   -1.180548    1.472514
     11          1           0       -1.704748    1.617882    1.124195
     12          1           0        0.464887    1.804303   -0.627748
     13          1           0        0.783450    1.552461    1.085164
     14          1           0        2.577699   -0.927628   -1.180023
     15          1           0        2.027152    0.648331   -1.754249
     16          1           0        2.944904    0.527542   -0.233807
 ---------------------------------------------------------------------

 SCF Done:  E(RHF) =  -324.213935822     A.U. after    2 cycles

 The electronic state is 1-A.
 Alpha  occ. eigenvalues --  -20.60441 -15.49468 -11.37761 -11.27868 -11.25649
 Alpha  occ. eigenvalues --  -11.25275 -11.23901  -1.54765  -1.24086  -1.07491
 Alpha  occ. eigenvalues --   -0.96658  -0.94971  -0.83571  -0.74502  -0.69876
 Alpha  occ. eigenvalues --   -0.67366  -0.67153  -0.64109  -0.62769  -0.59443
 Alpha  occ. eigenvalues --   -0.56622  -0.55842  -0.53759  -0.52983  -0.52292
 Alpha  occ. eigenvalues --   -0.39982  -0.34662
 Alpha virt. eigenvalues --    0.03479   0.03957   0.04516   0.04753   0.05535
 Alpha virt. eigenvalues --    0.06038   0.06638   0.07014   0.08170   0.09399
 Alpha virt. eigenvalues --    0.11893   0.12925   0.13459   0.13656   0.14686

 Mulliken charges:
               1
     1  C   -0.452709
     2  C    0.899420
     3  C   -0.762249
     4  N    0.355352
     5  C   -0.396063
     6  C    0.347788
     7  O   -0.933008
     8  H    0.214786
     9  H    0.081495
    10  H    0.074320
    11  H   -0.111891
    12  H    0.090265
    13  H    0.150088
    14  H    0.109292
    15  H    0.078309
    16  H    0.254804
 Sum of Mulliken charges =  -0.00000

 Dipole moment (field-independent basis, Debye):
    X=              1.7724    Y=              1.4565    Z=              1.1293  Tot=              2.5570

 Test job not archived.
 1\1\GINC-SE224\SP\RHF\Aug-CC-pVDZ\C5H9N1O1\OHZDE\09-Apr-2025\0\\#t hf
 aug-cc-pvdz iop(5/13=1,5/36=2,99/5=2) pseudo=read geom=check guess=(re
 ad,tcheck) scf=(maxcycle=1)\\title\\0,1\C,0,0.65462764,-1.06745305,0.8
 4162329\C,0,1.02360725,1.44580152,-0.8448866\C,0,-0.02656264,0.3697232
 7,-0.96930879\N,0,-0.37830408,-0.19290047,0.32196913\C,0,-1.66021476,-
 0.86374596,0.28772484\C,0,1.13811547,2.16812385,0.24302826\O,0,1.26850
 777,2.79935588,1.20365346\H,0,0.76862454,-1.98324858,0.23583045\H,0,0.
 4086081,-1.36102881,1.86310353\H,0,1.61296255,-0.54889327,0.85880998\H

 Normal termination of Gaussian 16 at Wed Apr  9 19:14:13 2025.
