 Gaussian 16, Revision C.01,

 ----------------------------------------------------------------------
 #t hf aug-cc-pvdz symm=none int=(grid=ultrafine) guess=(read,tcheck) s
 table=(opt,rrhf)
 ----------------------------------------------------------------------
 -----
 title
 -----
 Symbolic Z-matrix:
 Charge =  0 Multiplicity = 1

 SCF Done:  E(RHF) =  -322.376914375     A.U. after   16 cycles
 Normal termination of Gaussian 16 at Wed Apr  9 03:27:17 2025.
 Gaussian 16:  ES64L-G16RevC.01  3-Jul-2019

 ----------------------------------------------------------------------
 #t hf aug-cc-pvdz iop(5/13=1,5/36=2,99/5=2) pseudo=read geom=check gue
 ss=(read,tcheck) scf=(maxcycle=1)
 ----------------------------------------------------------------------
 -----
 title
 -----
 Structure from the checkpoint file:  "Grambow2020_wb97xd3_006649_forward_mol1.chk"
 Charge =  0 Multiplicity = 1

                         Standard orientation:
 ---------------------------------------------------------------------
 Center     Atomic      Atomic             Coordinates (Angstroms)
 Number     Number       Type             X           Y           Z
 ---------------------------------------------------------------------
      1          6           0       -1.916171    0.707170    0.023018
      2          7           0       -1.615247   -0.752647    0.220869
      3          6           0       -0.610556    0.107569    0.164741
      4          6           0        0.526615   -0.123753   -0.732315
      5          6           0        1.490529    1.003208   -0.304923
      6          6           0        1.009494    0.122237    0.812788
      7          8           0        1.262939   -1.072659    0.092279
      8          1           0       -2.261854    1.005570   -0.965679
      9          1           0       -2.378339    1.226013    0.855881
     10          1           0       -1.255501   -1.239868   -1.165230
     11          1           0       -0.556071   -1.073918   -1.717328
     12          1           0        1.127342    2.025580   -0.361266
     13          1           0        2.517917    0.839462   -0.604276
     14          1           0        1.010264    0.168372    1.893733
 ---------------------------------------------------------------------

 SCF Done:  E(RHF) =  -322.708229515     A.U. after    2 cycles

 The electronic state is 1-A.
 Alpha  occ. eigenvalues --  -20.59971 -15.50885 -11.37824 -11.37591 -11.29831
 Alpha  occ. eigenvalues --  -11.29335 -11.27733  -1.55666  -1.29760  -1.13795
 Alpha  occ. eigenvalues --   -0.94582  -0.90021  -0.87848  -0.76225  -0.72250
 Alpha  occ. eigenvalues --   -0.68089  -0.65098  -0.64528  -0.58702  -0.57439
 Alpha  occ. eigenvalues --   -0.55334  -0.52924  -0.48403  -0.45859  -0.39157
 Alpha  occ. eigenvalues --   -0.36933
 Alpha virt. eigenvalues --    0.02774   0.02957   0.03729   0.04635   0.05240
 Alpha virt. eigenvalues --    0.05975   0.06899   0.08015   0.09414   0.09597
 Alpha virt. eigenvalues --    0.11209   0.12491   0.12849   0.13017   0.14546

 Mulliken charges:
               1
     1  C    0.335337
     2  N    0.635295
     3  C   -1.295343
     4  C    0.514681
     5  C    0.182156
     6  C    0.857851
     7  O   -1.394465
     8  H   -0.129575
     9  H   -0.081675
    10  H    0.223436
    11  H    0.154349
    12  H    0.004980
    13  H    0.031328
    14  H   -0.038357
 Sum of Mulliken charges =  -0.00000

 Dipole moment (field-independent basis, Debye):
    X=              2.8017    Y=              4.6109    Z=              0.7229  Tot=              5.4436

 Test job not archived.
 1\1\GINC-SE412\SP\RHF\Aug-CC-pVDZ\C5H7N1O1\OHZDE\09-Apr-2025\0\\#t hf
 aug-cc-pvdz iop(5/13=1,5/36=2,99/5=2) pseudo=read geom=check guess=(re
 ad,tcheck) scf=(maxcycle=1)\\title\\0,1\C,0,-1.60789089,-0.90189443,-0
 .30583301\N,0,-1.72702121,0.54824492,0.07320324\C,0,-0.53273388,0.0576
 806,-0.21928877\C,0,0.60443838,0.26133656,0.68444718\C,0,1.77075338,-0
 .29915665,-0.15661927\C,0,0.94288254,0.75119965,-0.84084447\O,0,0.9597
 5846,1.61600292,0.28297662\H,0,-1.73997321,-1.62888448,0.49422937\H,0,
 -2.01565921,-1.18814614,-1.26928665\H,0,-1.34156153,0.57365986,1.53568

 Normal termination of Gaussian 16 at Wed Apr  9 03:27:22 2025.
