 Gaussian 16, Revision C.01,

 ----------------------------------------------------------------------
 #t hf aug-cc-pvdz symm=none int=(grid=ultrafine) guess=(read,tcheck) s
 table=(opt,rrhf)
 ----------------------------------------------------------------------
 -----
 title
 -----
 Symbolic Z-matrix:
 Charge =  0 Multiplicity = 1

 SCF Done:  E(RHF) =  -343.617281457     A.U. after   15 cycles
 Normal termination of Gaussian 16 at Wed Apr  9 18:51:46 2025.
 Gaussian 16:  ES64L-G16RevC.01  3-Jul-2019

 ----------------------------------------------------------------------
 #t hf aug-cc-pvdz iop(5/13=1,5/36=2,99/5=2) pseudo=read geom=check gue
 ss=(read,tcheck) scf=(maxcycle=1)
 ----------------------------------------------------------------------
 -----
 title
 -----
 Structure from the checkpoint file:  "Grambow2020_wb97xd3_008133_reverse_mol2.chk"
 Charge =  0 Multiplicity = 1

                         Standard orientation:
 ---------------------------------------------------------------------
 Center     Atomic      Atomic             Coordinates (Angstroms)
 Number     Number       Type             X           Y           Z
 ---------------------------------------------------------------------
      1          6           0       -0.929133    0.998628    0.348222
      2          8           0       -1.545588    0.017139   -0.509699
      3          6           0       -2.303641   -0.861348    0.057179
      4          6           0        1.021920   -0.645347    0.884952
      5          6           0        0.556800    0.755251    0.458388
      6          6           0        1.336085    0.457282   -0.832878
      7          8           0        1.696973   -0.847306   -0.363526
      8          1           0       -1.421095    0.937681    1.320693
      9          1           0       -1.132376    1.965787   -0.115053
     10          1           0       -2.623649   -1.496276   -0.799827
     11          1           0        1.713323   -0.668588    1.731620
     12          1           0        0.228414   -1.380309    1.047943
     13          1           0        0.981910    1.561924    1.056366
     14          1           0        0.735909    0.408822   -1.745261
     15          1           0        2.214290    1.085501   -1.005855
 ---------------------------------------------------------------------

 SCF Done:  E(RHF) =  -343.967906730     A.U. after    2 cycles

 The electronic state is 1-A.
 Alpha  occ. eigenvalues --  -20.61882 -20.53956 -11.30911 -11.30617 -11.29070
 Alpha  occ. eigenvalues --  -11.28951 -11.25487  -1.54837  -1.46987  -1.08510
 Alpha  occ. eigenvalues --   -0.96483  -0.94656  -0.84280  -0.76298  -0.71544
 Alpha  occ. eigenvalues --   -0.70991  -0.67932  -0.62849  -0.61353  -0.58739
 Alpha  occ. eigenvalues --   -0.57651  -0.56315  -0.52004  -0.47277  -0.46496
 Alpha  occ. eigenvalues --   -0.41414  -0.36429
 Alpha virt. eigenvalues --    0.02859   0.03794   0.04305   0.04558   0.06032
 Alpha virt. eigenvalues --    0.06546   0.06884   0.06961   0.09564   0.10015
 Alpha virt. eigenvalues --    0.11989   0.12509   0.13461   0.13806   0.14606

 Mulliken charges:
               1
     1  C    0.638061
     2  O   -1.012062
     3  C    0.030520
     4  C    0.916121
     5  C   -0.750425
     6  C    0.937252
     7  O   -1.298815
     8  H    0.235493
     9  H    0.066071
    10  H    0.056074
    11  H    0.048080
    12  H    0.054995
    13  H   -0.036639
    14  H    0.060278
    15  H    0.054997
 Sum of Mulliken charges =  -0.00000

 Dipole moment (field-independent basis, Debye):
    X=              0.2713    Y=              2.7933    Z=              0.1963  Tot=              2.8133

 Test job not archived.
 1\1\GINC-SE174\SP\RHF\Aug-CC-pVDZ\C5H8O2\OHZDE\09-Apr-2025\0\\#t hf au
 g-cc-pvdz iop(5/13=1,5/36=2,99/5=2) pseudo=read geom=check guess=(read
 ,tcheck) scf=(maxcycle=1)\\title\\0,1\C,0,-1.13892922,0.58425703,0.275
 87103\O,0,-0.52482696,1.47514285,-0.67731659\C,0,-0.9584602,1.42034602
 ,-1.89251002\C,0,0.47075787,-1.34006674,-0.43351167\C,0,-0.17952743,-0
 .50828734,0.68239179\C,0,1.26574014,-0.10893373,1.02173471\O,0,1.78050
 648,-0.88954199,-0.06369057\H,0,-2.03908189,0.1782187,-0.1892077\H,0,-
 1.40683568,1.20611358,1.13193699\H,0,-0.31884503,2.16843625,-2.413327\

 Normal termination of Gaussian 16 at Wed Apr  9 18:51:51 2025.
