 Gaussian 16, Revision C.01,

 ----------------------------------------------------------------------
 #t hf aug-cc-pvdz symm=none int=(grid=ultrafine) guess=(read,tcheck) s
 table=(opt,rrhf)
 ----------------------------------------------------------------------
 -----
 title
 -----
 Symbolic Z-matrix:
 Charge =  0 Multiplicity = 1

 SCF Done:  E(RHF) =  -308.929105463     A.U. after   15 cycles

 1\1\GINC-SE220\Stability\RHF\Aug-CC-pVDZ\C6H12O1\OHZDE\09-Apr-2025\0\\
 #t hf aug-cc-pvdz symm=none int=(grid=ultrafine) guess=(read,tcheck) s
 table=(opt,rrhf)\\title\\0,1\C,0,-1.6728712,-0.98205973,-0.61182025\C,
 0,-0.73167629,0.04652187,0.01340328\C,0,-1.48215651,1.03477078,0.90121
 659\C,0,0.32748631,-0.6695055,0.81820486\O,0,1.24347902,-1.47735107,0.
 14478854\C,0,2.13424992,-0.46533673,0.61771738\C,0,2.41842615,0.529477
 7,-0.47987465\H,0,-2.42612608,-0.48584702,-1.22678306\H,0,-1.12261957,
 -1.68281663,-1.24015238\H,0,-2.19574809,-1.5537988,0.15998907\H,0,-0.2

 Normal termination of Gaussian 16 at Wed Apr  9 18:32:57 2025.
 Gaussian 16:  ES64L-G16RevC.01  3-Jul-2019

 ----------------------------------------------------------------------
 #t hf aug-cc-pvdz iop(5/13=1,5/36=2,99/5=2) pseudo=read geom=check gue
 ss=(read,tcheck) scf=(maxcycle=1)
 ----------------------------------------------------------------------
 -----
 title
 -----
 Structure from the checkpoint file:  "Grambow2020_wb97xd3_007693_forward_mol1.chk"
 Charge =  0 Multiplicity = 1

                         Standard orientation:
 ---------------------------------------------------------------------
 Center     Atomic      Atomic             Coordinates (Angstroms)
 Number     Number       Type             X           Y           Z
 ---------------------------------------------------------------------
      1          6           0        1.838467   -1.047579    0.613639
      2          6           0        0.978365    0.165494    0.262337
      3          6           0        1.816351    1.310293   -0.299164
      4          6           0       -0.075802   -0.242714   -0.739823
      5          8           0       -1.060214   -1.146469   -0.340689
      6          6           0       -1.877880    0.006602   -0.548430
      7          6           0       -2.164076    0.683447    0.768799
      8          1           0        2.585559   -0.781269    1.363793
      9          1           0        1.226263   -1.857945    1.010062
     10          1           0        2.368238   -1.419863   -0.267679
     11          1           0        0.483920    0.504098    1.174697
     12          1           0        2.307488    1.018134   -1.231568
     13          1           0        2.596600    1.599396    0.406435
     14          1           0        1.206277    2.193169   -0.502659
     15          1           0        0.330332   -0.515382   -1.719995
     16          1           0       -0.793664    0.672378   -1.128061
     17          1           0       -1.468811    0.490003    1.589837
     18          1           0       -3.133304    0.261339    1.054318
     19          1           0       -2.319741    1.754440    0.632183
 ---------------------------------------------------------------------

 SCF Done:  E(RHF) =  -309.258384394     A.U. after    2 cycles

 The electronic state is 1-A.
 Alpha  occ. eigenvalues --  -20.56427 -11.32870 -11.30517 -11.25478 -11.24027
 Alpha  occ. eigenvalues --  -11.23383 -11.23141  -1.50619  -1.10671  -1.01390
 Alpha  occ. eigenvalues --   -0.94992  -0.93858  -0.83242  -0.79193  -0.67985
 Alpha  occ. eigenvalues --   -0.66432  -0.61926  -0.60736  -0.58986  -0.57221
 Alpha  occ. eigenvalues --   -0.56466  -0.55611  -0.52978  -0.51270  -0.50120
 Alpha  occ. eigenvalues --   -0.48789  -0.45841  -0.33158
 Alpha virt. eigenvalues --    0.03114   0.03415   0.03637   0.04473   0.05800
 Alpha virt. eigenvalues --    0.06109   0.06436   0.06779   0.07184   0.08999
 Alpha virt. eigenvalues --    0.09604   0.09681   0.11552   0.12764   0.13722

 Mulliken charges:
               1
     1  C   -0.001868
     2  C   -1.436020
     3  C    0.003760
     4  C    0.851801
     5  O   -1.303085
     6  C   -0.371100
     7  C   -0.318968
     8  H    0.153390
     9  H    0.151102
    10  H    0.239345
    11  H    0.211454
    12  H    0.244592
    13  H    0.153321
    14  H    0.126983
    15  H   -0.013778
    16  H    0.763775
    17  H    0.158311
    18  H    0.171996
    19  H    0.214990
 Sum of Mulliken charges =  -0.00000

 Dipole moment (field-independent basis, Debye):
    X=              2.5963    Y=              1.5961    Z=              1.1602  Tot=              3.2610

 Test job not archived.
 1\1\GINC-SE220\SP\RHF\Aug-CC-pVDZ\C6H12O1\OHZDE\09-Apr-2025\0\\#t hf a
 ug-cc-pvdz iop(5/13=1,5/36=2,99/5=2) pseudo=read geom=check guess=(rea
 d,tcheck) scf=(maxcycle=1)\\title\\0,1\C,0,-1.6728712,-0.98205973,-0.6
 1182025\C,0,-0.73167629,0.04652187,0.01340328\C,0,-1.48215651,1.034770
 78,0.90121659\C,0,0.32748631,-0.6695055,0.81820486\O,0,1.24347902,-1.4
 7735107,0.14478854\C,0,2.13424992,-0.46533673,0.61771738\C,0,2.4184261
 5,0.5294777,-0.47987465\H,0,-2.42612608,-0.48584702,-1.22678306\H,0,-1
 .12261957,-1.68281663,-1.24015238\H,0,-2.19574809,-1.5537988,0.1599890

 Normal termination of Gaussian 16 at Wed Apr  9 18:33:05 2025.
