 Gaussian 16, Revision C.01,

 ----------------------------------------------------------------------
 #t hf aug-cc-pvdz symm=none int=(grid=ultrafine) guess=(read,tcheck) s
 table=(opt,rrhf)
 ----------------------------------------------------------------------
 -----
 title
 -----
 Symbolic Z-matrix:
 Charge =  0 Multiplicity = 1

 SCF Done:  E(RHF) =  -283.473362481     A.U. after   17 cycles
 Normal termination of Gaussian 16 at Wed Apr  9 16:13:42 2025.
 Gaussian 16:  ES64L-G16RevC.01  3-Jul-2019

 ----------------------------------------------------------------------
 #t hf aug-cc-pvdz iop(5/13=1,5/36=2,99/5=2) pseudo=read geom=check gue
 ss=(read,tcheck) scf=(maxcycle=1)
 ----------------------------------------------------------------------
 -----
 title
 -----
 Structure from the checkpoint file:  "Grambow2020_b97d3_007177_forward_mol1.chk"
 Charge =  0 Multiplicity = 1

                         Standard orientation:
 ---------------------------------------------------------------------
 Center     Atomic      Atomic             Coordinates (Angstroms)
 Number     Number       Type             X           Y           Z
 ---------------------------------------------------------------------
      1          6           0       -1.491962   -0.876881   -0.469922
      2          7           0       -1.019304   -0.740002    0.803447
      3          6           0       -0.036521    0.668504   -0.117642
      4          8           0       -0.417177    1.793692    0.089025
      5          6           0        1.205852   -0.025968   -0.067483
      6          6           0        2.313072   -0.533476   -0.068635
      7          1           0       -1.395966   -1.815045   -1.044209
      8          1           0       -0.620864    0.000462   -1.185626
      9          1           0       -2.390029   -0.292308   -0.703865
     10          1           0       -0.356828   -1.493207    1.022370
     11          1           0        3.293588   -0.962498   -0.082904
 ---------------------------------------------------------------------

 SCF Done:  E(RHF) =  -283.757371815     A.U. after    2 cycles

 The electronic state is 1-A.
 Alpha  occ. eigenvalues --  -20.55408 -15.49832 -11.44557 -11.35279 -11.29714
 Alpha  occ. eigenvalues --  -11.29057  -1.49418  -1.21911  -1.08330  -0.94291
 Alpha  occ. eigenvalues --   -0.90980  -0.75856  -0.72819  -0.68431  -0.67260
 Alpha  occ. eigenvalues --   -0.63878  -0.61082  -0.48995  -0.45882  -0.45188
 Alpha  occ. eigenvalues --   -0.43995  -0.36645
 Alpha virt. eigenvalues --    0.02588   0.03304   0.04301   0.05004   0.05697
 Alpha virt. eigenvalues --    0.06706   0.07884   0.09819   0.10077   0.10902
 Alpha virt. eigenvalues --    0.12387   0.12665   0.13202   0.14413   0.14612

 Mulliken charges:
               1
     1  C   -0.664045
     2  N    0.163252
     3  C    0.840643
     4  O   -1.278300
     5  C    0.626076
     6  C    0.007131
     7  H    0.078107
     8  H    0.366101
     9  H    0.116512
    10  H    0.126712
    11  H   -0.382189
 Sum of Mulliken charges =  -0.00000

 Dipole moment (field-independent basis, Debye):
    X=              1.7103    Y=             -3.7864    Z=             -2.8245  Tot=              5.0239

 Test job not archived.
 1\1\GINC-SE232\SP\RHF\Aug-CC-pVDZ\C4H5N1O1\OHZDE\09-Apr-2025\0\\#t hf
 aug-cc-pvdz iop(5/13=1,5/36=2,99/5=2) pseudo=read geom=check guess=(re
 ad,tcheck) scf=(maxcycle=1)\\title\\0,1\C,0,-1.40328037,-0.11262816,-0
 .57160346\N,0,-0.66450193,-1.20059172,-0.20533643\C,0,0.02283858,0.151
 87289,1.01800298\O,0,-0.35232792,0.06364177,2.16042365\C,0,1.27499814,
 0.26589652,0.34913049\C,0,2.37565978,0.43089956,-0.1456619\H,0,-1.3959
 1588,0.29546379,-1.59755587\H,0,-0.75478706,0.92485129,0.16587064\H,0,
 -2.35635486,0.00872098,-0.04254511\H,0,0.06344313,-1.39074795,-0.90394

 Normal termination of Gaussian 16 at Wed Apr  9 16:13:45 2025.
