 Gaussian 16, Revision C.01,

 ----------------------------------------------------------------------
 #t hf aug-cc-pvdz symm=none int=(grid=ultrafine) guess=(read,tcheck) s
 table=(opt,rrhf)
 ----------------------------------------------------------------------
 -----
 title
 -----
 Symbolic Z-matrix:
 Charge =  0 Multiplicity = 1

 SCF Done:  E(RHF) =  -373.120916009     A.U. after   21 cycles
 Normal termination of Gaussian 16 at Wed Apr  9 04:05:26 2025.
 Gaussian 16:  ES64L-G16RevC.01  3-Jul-2019

 ----------------------------------------------------------------------
 #t hf aug-cc-pvdz iop(5/13=1,5/36=2,99/5=2) pseudo=read geom=check gue
 ss=(read,tcheck) scf=(maxcycle=1)
 ----------------------------------------------------------------------
 -----
 title
 -----
 Structure from the checkpoint file:  "Grambow2020_wb97xd3_009220_forward_mol1.chk"
 Charge =  0 Multiplicity = 1

                         Standard orientation:
 ---------------------------------------------------------------------
 Center     Atomic      Atomic             Coordinates (Angstroms)
 Number     Number       Type             X           Y           Z
 ---------------------------------------------------------------------
      1          7           0       -2.587398   -0.419389   -0.044928
      2          6           0       -1.453685    0.018687    0.004583
      3          8           0        0.449866   -1.002151    0.041064
      4          6           0        1.234870    0.049919    0.395712
      5          8           0        2.115451   -0.558219   -0.341576
      6          6           0       -0.627585    1.111616   -0.125420
      7          7           0        0.559544    1.364551   -0.075067
      8          1           0       -2.687741   -1.415129    0.132150
      9          1           0        1.438593    0.200622    1.462666
 ---------------------------------------------------------------------

 SCF Done:  E(RHF) =  -373.481564144     A.U. after    2 cycles

 The electronic state is 1-A.
 Alpha  occ. eigenvalues --  -20.68405 -20.65079 -15.56979 -15.56580 -11.42498
 Alpha  occ. eigenvalues --  -11.37060 -11.33744  -1.62380  -1.38540  -1.30521
 Alpha  occ. eigenvalues --   -1.28830  -0.99060  -0.92396  -0.81550  -0.78453
 Alpha  occ. eigenvalues --   -0.74909  -0.68597  -0.64901  -0.60330  -0.59386
 Alpha  occ. eigenvalues --   -0.54695  -0.53008  -0.52174  -0.50658  -0.36734
 Alpha virt. eigenvalues --   -0.00705   0.01612   0.03128   0.04321   0.06758
 Alpha virt. eigenvalues --    0.09106   0.09496   0.10147   0.10753   0.11865
 Alpha virt. eigenvalues --    0.11919   0.12508   0.13348   0.14251   0.16620

 Mulliken charges:
               1
     1  N    0.733028
     2  C   -0.590499
     3  O   -0.858054
     4  C    1.619123
     5  O   -0.933356
     6  C   -1.124548
     7  N    0.833939
     8  H    0.157007
     9  H    0.163360
 Sum of Mulliken charges =  -0.00000

 Dipole moment (field-independent basis, Debye):
    X=             -0.9887    Y=             -1.5447    Z=              1.9882  Tot=              2.7049

 Test job not archived.
 1\1\GINC-SE284\SP\RHF\Aug-CC-pVDZ\C3H2N2O2\OHZDE\09-Apr-2025\0\\#t hf
 aug-cc-pvdz iop(5/13=1,5/36=2,99/5=2) pseudo=read geom=check guess=(re
 ad,tcheck) scf=(maxcycle=1)\\title\\0,1\N,0,-2.12263146,-1.21306215,0.
 22472588\C,0,-1.22900276,-0.38784855,0.21392448\O,0,0.74144028,-0.4577
 6768,-0.66891964\C,0,1.27649837,0.62915105,-0.05152359\O,0,1.93300667,
 0.74631922,-1.16692319\C,0,-0.85734318,0.91980544,0.42780892\N,0,0.134
 99922,1.61198447,0.31857739\H,0,-1.86532832,-2.15137477,-0.06902418\H,
 0,1.82783718,0.46823297,0.88267992\\Version=ES64L-G16RevC.01\State=1-A

 Normal termination of Gaussian 16 at Wed Apr  9 04:05:30 2025.
