 Gaussian 16, Revision C.01,

 ----------------------------------------------------------------------
 #t hf aug-cc-pvdz symm=none int=(grid=ultrafine) guess=(read,tcheck) s
 table=(opt,rrhf)
 ----------------------------------------------------------------------
 -----
 title
 -----
 Symbolic Z-matrix:
 Charge =  0 Multiplicity = 1

 SCF Done:  E(RHF) =  -359.748532030     A.U. after   14 cycles
 Normal termination of Gaussian 16 at Wed Apr  9 19:21:02 2025.
 Gaussian 16:  ES64L-G16RevC.01  3-Jul-2019

 ----------------------------------------------------------------------
 #t hf aug-cc-pvdz iop(5/13=1,5/36=2,99/5=2) pseudo=read geom=check gue
 ss=(read,tcheck) scf=(maxcycle=1)
 ----------------------------------------------------------------------
 -----
 title
 -----
 Structure from the checkpoint file:  "Grambow2020_wb97xd3_009396_forward_mol2.chk"
 Charge =  0 Multiplicity = 1

                         Standard orientation:
 ---------------------------------------------------------------------
 Center     Atomic      Atomic             Coordinates (Angstroms)
 Number     Number       Type             X           Y           Z
 ---------------------------------------------------------------------
      1          8           0       -1.644594   -0.074763   -0.942546
      2          6           0       -1.084952    0.010664    0.353329
      3          6           0       -0.197211   -1.183968    0.652176
      4          8           0        0.993089   -1.149761   -0.140380
      5          6           0        1.515890    0.069731   -0.380599
      6          7           0        1.042375    1.203932   -0.108289
      7          6           0       -0.258387    1.274749    0.543680
      8          1           0       -0.953916    0.075555   -1.593127
      9          1           0       -1.933062    0.001851    1.041180
     10          1           0        0.086207   -1.196831    1.709209
     11          1           0       -0.697894   -2.117615    0.402058
     12          1           0        2.468409   -0.024717   -0.895940
     13          1           0       -0.106508    1.472438    1.609046
     14          1           0       -0.799861    2.130935    0.137488
 ---------------------------------------------------------------------

 SCF Done:  E(RHF) =  -360.114726850     A.U. after    2 cycles

 The electronic state is 1-A.
 Alpha  occ. eigenvalues --  -20.59136 -20.55612 -15.49318 -11.34603 -11.30490
 Alpha  occ. eigenvalues --  -11.30008 -11.26826  -1.52664  -1.46144  -1.23509
 Alpha  occ. eigenvalues --   -1.07167  -0.95485  -0.90197  -0.76701  -0.74843
 Alpha  occ. eigenvalues --   -0.70771  -0.69594  -0.64309  -0.63039  -0.61643
 Alpha  occ. eigenvalues --   -0.57891  -0.55542  -0.52815  -0.51186  -0.47321
 Alpha  occ. eigenvalues --   -0.43131  -0.41314
 Alpha virt. eigenvalues --    0.03352   0.04041   0.04485   0.04743   0.05763
 Alpha virt. eigenvalues --    0.06507   0.06713   0.09796   0.10144   0.12390
 Alpha virt. eigenvalues --    0.13130   0.13310   0.13809   0.14746   0.15289

 Mulliken charges:
               1
     1  O   -1.454295
     2  C    0.956440
     3  C    0.586445
     4  O   -1.220361
     5  C    0.147704
     6  N    0.743884
     7  C   -0.608705
     8  H    0.339560
     9  H    0.149082
    10  H    0.172575
    11  H    0.046343
    12  H   -0.040071
    13  H    0.098604
    14  H    0.082796
 Sum of Mulliken charges =  -0.00000

 Dipole moment (field-independent basis, Debye):
    X=             -0.0166    Y=             -1.2774    Z=              1.3753  Tot=              1.8771

 Test job not archived.
 1\1\GINC-SE207\SP\RHF\Aug-CC-pVDZ\C4H7N1O2\OHZDE\09-Apr-2025\0\\#t hf
 aug-cc-pvdz iop(5/13=1,5/36=2,99/5=2) pseudo=read geom=check guess=(re
 ad,tcheck) scf=(maxcycle=1)\\title\\0,1\O,0,-1.17115807,-0.58098636,1.
 37483004\C,0,-0.98536956,-0.00522928,0.09663787\C,0,-0.19259855,1.2865
 8251,0.18193519\O,0,1.16730269,1.03107875,0.5445856\C,0,1.71572174,-0.
 09683298,0.049371\N,0,1.1676972,-1.0292625,-0.59485326\C,0,-0.26209865
 ,-0.94286399,-0.85995756\H,0,-0.3324807,-0.93110748,1.68615323\H,0,-1.
 9879702,0.21894954,-0.2735545\H,0,-0.20627539,1.80964268,-0.77932966\H

 Normal termination of Gaussian 16 at Wed Apr  9 19:21:06 2025.
