 Gaussian 16, Revision C.01,

 ----------------------------------------------------------------------
 #t hf aug-cc-pvdz symm=none int=(grid=ultrafine) guess=(read,tcheck) s
 table=(opt,rrhf)
 ----------------------------------------------------------------------
 -----
 title
 -----
 Symbolic Z-matrix:
 Charge =  0 Multiplicity = 1

 SCF Done:  E(RHF) =  -322.738484383     A.U. after   13 cycles
 Normal termination of Gaussian 16 at Wed Apr  9 18:08:05 2025.
 Gaussian 16:  ES64L-G16RevC.01  3-Jul-2019

 ----------------------------------------------------------------------
 #t hf aug-cc-pvdz iop(5/13=1,5/36=2,99/5=2) pseudo=read geom=check gue
 ss=(read,tcheck) scf=(maxcycle=1)
 ----------------------------------------------------------------------
 -----
 title
 -----
 Structure from the checkpoint file:  "Grambow2020_wb97xd3_007119_reverse_mol2.chk"
 Charge =  0 Multiplicity = 1

                         Standard orientation:
 ---------------------------------------------------------------------
 Center     Atomic      Atomic             Coordinates (Angstroms)
 Number     Number       Type             X           Y           Z
 ---------------------------------------------------------------------
      1          7           0        2.299117    0.063195   -0.157497
      2          6           0        1.050397    0.019554    0.005979
      3          8           0        0.379439   -1.154571   -0.048720
      4          6           0       -1.025260   -1.232070    0.178790
      5          6           0       -1.771400    0.012335   -0.174073
      6          6           0        0.270334    1.284449    0.259722
      7          6           0       -1.166607    1.186603   -0.147121
      8          1           0        2.672375   -0.872364   -0.303158
      9          1           0       -1.192142   -1.495306    1.230778
     10          1           0       -1.365782   -2.074599   -0.424477
     11          1           0       -2.818296   -0.089594   -0.434427
     12          1           0        0.334690    1.511476    1.330521
     13          1           0        0.792550    2.091152   -0.251514
     14          1           0       -1.697506    2.098205   -0.395257
 ---------------------------------------------------------------------

 SCF Done:  E(RHF) =  -323.071050709     A.U. after    2 cycles

 The electronic state is 1-A.
 Alpha  occ. eigenvalues --  -20.58053 -15.46507 -11.34214 -11.31148 -11.25603
 Alpha  occ. eigenvalues --  -11.25481 -11.25179  -1.51532  -1.20426  -1.11602
 Alpha  occ. eigenvalues --   -1.01763  -0.93024  -0.83386  -0.73240  -0.71668
 Alpha  occ. eigenvalues --   -0.70721  -0.67929  -0.62682  -0.60425  -0.58969
 Alpha  occ. eigenvalues --   -0.54823  -0.53208  -0.49815  -0.46375  -0.41214
 Alpha  occ. eigenvalues --   -0.38090
 Alpha virt. eigenvalues --    0.03051   0.03696   0.04043   0.04675   0.06066
 Alpha virt. eigenvalues --    0.06462   0.06918   0.09711   0.10933   0.11573
 Alpha virt. eigenvalues --    0.12955   0.13906   0.14344   0.14499   0.14864

 Mulliken charges:
               1
     1  N    0.745121
     2  C    0.103739
     3  O   -1.500513
     4  C    0.403020
     5  C    0.161055
     6  C   -0.996503
     7  C    0.362121
     8  H    0.172633
     9  H    0.225777
    10  H    0.043222
    11  H   -0.145740
    12  H    0.345719
    13  H    0.245712
    14  H   -0.165364
 Sum of Mulliken charges =  -0.00000

 Dipole moment (field-independent basis, Debye):
    X=             -3.8760    Y=             -0.3533    Z=              0.6233  Tot=              3.9416

 Test job not archived.
 1\1\GINC-SE362\SP\RHF\Aug-CC-pVDZ\C5H7N1O1\OHZDE\09-Apr-2025\0\\#t hf
 aug-cc-pvdz iop(5/13=1,5/36=2,99/5=2) pseudo=read geom=check guess=(re
 ad,tcheck) scf=(maxcycle=1)\\title\\0,1\N,0,1.61982997,-1.89806911,-1.
 06484541\C,0,0.85401514,-0.9151645,-0.87680756\O,0,1.34504395,0.340718
 57,-0.76107921\C,0,0.49358434,1.47125218,-0.59417567\C,0,-0.80228338,1
 .16619129,0.08217003\C,0,-0.63566792,-1.11962244,-0.76778493\C,0,-1.32
 62619,-0.0445305,0.01141405\H,0,2.58737436,-1.58889341,-1.12870588\H,0
 ,0.31674647,1.92061558,-1.57937713\H,0,1.07805841,2.18498132,-0.012177

 Normal termination of Gaussian 16 at Wed Apr  9 18:08:09 2025.
