 Gaussian 16, Revision C.01,

 ----------------------------------------------------------------------
 #t hf aug-cc-pvdz symm=none int=(grid=ultrafine) guess=(read,tcheck) s
 table=(opt,rrhf)
 ----------------------------------------------------------------------
 -----
 title
 -----
 Symbolic Z-matrix:
 Charge =  0 Multiplicity = 1

 SCF Done:  E(RHF) =  -310.244698299     A.U. after   12 cycles

 1\1\GINC-SE041\Stability\RHF\Aug-CC-pVDZ\C6H14O1\OHZDE\09-Apr-2025\0\\
 #t hf aug-cc-pvdz symm=none int=(grid=ultrafine) guess=(read,tcheck) s
 table=(opt,rrhf)\\title\\0,1\C,0,-0.52333751,-0.5251104,-0.21445626\C,
 0,-2.00947516,-0.1064584,-0.25356293\C,0,-2.05211742,1.3515797,0.26120
 336\C,0,-0.65163448,1.6279487,0.81843079\C,0,0.25748197,0.78374486,-0.
 07094916\O,0,2.67962691,-1.774713,-0.01623551\C,0,2.97976134,-1.467102
 22,-1.36042897\H,0,-0.34357846,-1.15310115,0.66456952\H,0,1.72842341,-
 1.85619802,0.07188692\H,0,-0.23423468,-1.10273828,-1.09592903\H,0,-2.4

 Normal termination of Gaussian 16 at Wed Apr  9 18:34:57 2025.
 Gaussian 16:  ES64L-G16RevC.01  3-Jul-2019

 ----------------------------------------------------------------------
 #t hf aug-cc-pvdz iop(5/13=1,5/36=2,99/5=2) pseudo=read geom=check gue
 ss=(read,tcheck) scf=(maxcycle=1)
 ----------------------------------------------------------------------
 -----
 title
 -----
 Structure from the checkpoint file:  "Grambow2020_wb97xd3_007722_reverse_mol2.chk"
 Charge =  0 Multiplicity = 1

                         Standard orientation:
 ---------------------------------------------------------------------
 Center     Atomic      Atomic             Coordinates (Angstroms)
 Number     Number       Type             X           Y           Z
 ---------------------------------------------------------------------
      1          6           0       -0.358048    0.745302   -0.144461
      2          6           0       -1.815039    1.226371    0.032042
      3          6           0       -2.672785   -0.055545    0.148827
      4          6           0       -1.734509   -1.208721   -0.222733
      5          6           0       -0.370744   -0.729016    0.267366
      6          8           0        2.930528   -0.063815   -0.769263
      7          6           0        3.301759    0.011523    0.590175
      8          1           0       -0.071991    0.825133   -1.198582
      9          1           0        2.147616    0.473707   -0.900835
     10          1           0        0.347713    1.346356    0.434214
     11          1           0       -1.918673    1.843463    0.925831
     12          1           0       -2.128052    1.844091   -0.810696
     13          1           0       -3.018177   -0.182775    1.177630
     14          1           0       -3.562919   -0.021575   -0.480674
     15          1           0       -1.705902   -1.339130   -1.309188
     16          1           0       -2.040052   -2.162056    0.211356
     17          1           0       -0.321777   -0.813142    1.358113
     18          1           0        0.465103   -1.296036   -0.145977
     19          1           0        2.511626   -0.354844    1.255872
     20          1           0        3.569530    1.030989    0.890120
     21          1           0        4.177921   -0.623138    0.719620
 ---------------------------------------------------------------------

 SCF Done:  E(RHF) =  -310.586708243     A.U. after    2 cycles

 The electronic state is 1-A.
 Alpha  occ. eigenvalues --  -20.54396 -11.27886 -11.22954 -11.22555 -11.22311
 Alpha  occ. eigenvalues --  -11.22299 -11.22236  -1.44524  -1.12596  -0.96555
 Alpha  occ. eigenvalues --   -0.96339  -0.92633  -0.78623  -0.77877  -0.69245
 Alpha  occ. eigenvalues --   -0.66342  -0.66069  -0.62013  -0.59499  -0.58293
 Alpha  occ. eigenvalues --   -0.58215  -0.50111  -0.49044  -0.48863  -0.48143
 Alpha  occ. eigenvalues --   -0.47793  -0.47146  -0.46130  -0.44015
 Alpha virt. eigenvalues --    0.03268   0.03585   0.03835   0.04204   0.05434
 Alpha virt. eigenvalues --    0.05745   0.06319   0.06556   0.06664   0.08397
 Alpha virt. eigenvalues --    0.08795   0.09601   0.09831   0.11283   0.13971

 Mulliken charges:
               1
     1  C   -0.066422
     2  C   -0.405518
     3  C   -0.226969
     4  C   -0.323467
     5  C   -0.077084
     6  O   -1.146545
     7  C    0.425596
     8  H    0.136899
     9  H    0.515348
    10  H    0.017003
    11  H    0.164017
    12  H    0.155500
    13  H    0.109760
    14  H    0.092067
    15  H    0.112600
    16  H    0.132820
    17  H    0.083566
    18  H    0.069761
    19  H    0.131224
    20  H    0.102224
    21  H   -0.002379
 Sum of Mulliken charges =   0.00000

 Dipole moment (field-independent basis, Debye):
    X=             -1.0905    Y=              0.7555    Z=              1.1965  Tot=              1.7865

 Test job not archived.
 1\1\GINC-SE041\SP\RHF\Aug-CC-pVDZ\C6H14O1\OHZDE\09-Apr-2025\0\\#t hf a
 ug-cc-pvdz iop(5/13=1,5/36=2,99/5=2) pseudo=read geom=check guess=(rea
 d,tcheck) scf=(maxcycle=1)\\title\\0,1\C,0,-0.52333751,-0.5251104,-0.2
 1445626\C,0,-2.00947516,-0.1064584,-0.25356293\C,0,-2.05211742,1.35157
 97,0.26120336\C,0,-0.65163448,1.6279487,0.81843079\C,0,0.25748197,0.78
 374486,-0.07094916\O,0,2.67962691,-1.774713,-0.01623551\C,0,2.97976134
 ,-1.46710222,-1.36042897\H,0,-0.34357846,-1.15310115,0.66456952\H,0,1.
 72842341,-1.85619802,0.07188692\H,0,-0.23423468,-1.10273828,-1.0959290

 Normal termination of Gaussian 16 at Wed Apr  9 18:35:06 2025.
