 Gaussian 16, Revision C.01,

 ----------------------------------------------------------------------
 #t hf aug-cc-pvdz symm=none int=(grid=ultrafine) guess=(read,tcheck) s
 table=(opt,rrhf)
 ----------------------------------------------------------------------
 -----
 title
 -----
 Symbolic Z-matrix:
 Charge =  0 Multiplicity = 1

 SCF Done:  E(RHF) =  -342.340213657     A.U. after   17 cycles
 Normal termination of Gaussian 16 at Wed Apr  9 19:04:52 2025.
 Gaussian 16:  ES64L-G16RevC.01  3-Jul-2019

 ----------------------------------------------------------------------
 #t hf aug-cc-pvdz iop(5/13=1,5/36=2,99/5=2) pseudo=read geom=check gue
 ss=(read,tcheck) scf=(maxcycle=1)
 ----------------------------------------------------------------------
 -----
 title
 -----
 Structure from the checkpoint file:  "Grambow2020_wb97xd3_008524_forward_mol1.chk"
 Charge =  0 Multiplicity = 1

                         Standard orientation:
 ---------------------------------------------------------------------
 Center     Atomic      Atomic             Coordinates (Angstroms)
 Number     Number       Type             X           Y           Z
 ---------------------------------------------------------------------
      1          8           0        0.490645    1.476649   -0.250978
      2          6           0       -0.327488    0.865654    0.462787
      3          6           0       -1.518551    0.208995   -0.238870
      4          8           0       -0.773177   -0.967325   -0.679714
      5          6           0        0.453496   -1.002161    0.124611
      6          6           0        1.566952   -0.228338   -0.462681
      7          6           0        0.173910   -0.158641    1.317652
      8          1           0       -1.863374    0.745788   -1.120356
      9          1           0       -2.344542   -0.066868    0.415266
     10          1           0        0.736307   -2.036295    0.329932
     11          1           0        1.539661    0.138949   -1.478987
     12          1           0        2.542021   -0.349777   -0.005372
     13          1           0       -0.439726   -0.619445    2.084057
 ---------------------------------------------------------------------

 SCF Done:  E(RHF) =  -342.684467991     A.U. after    2 cycles

 The electronic state is 1-A.
 Alpha  occ. eigenvalues --  -20.55912 -20.55811 -11.36363 -11.34323 -11.32271
 Alpha  occ. eigenvalues --  -11.30877 -11.20003  -1.50138  -1.45058  -1.10891
 Alpha  occ. eigenvalues --   -1.03218  -0.93503  -0.81236  -0.76383  -0.71182
 Alpha  occ. eigenvalues --   -0.70283  -0.65461  -0.64835  -0.60092  -0.57557
 Alpha  occ. eigenvalues --   -0.56425  -0.52190  -0.48739  -0.44062  -0.42156
 Alpha  occ. eigenvalues --   -0.29334
 Alpha virt. eigenvalues --    0.01598   0.03572   0.04236   0.04761   0.05149
 Alpha virt. eigenvalues --    0.05995   0.06709   0.08025   0.09860   0.11059
 Alpha virt. eigenvalues --    0.12216   0.12629   0.13303   0.14487   0.14615

 Mulliken charges:
               1
     1  O   -1.352994
     2  C    1.201752
     3  C    0.422650
     4  O   -1.480037
     5  C    1.113085
     6  C    0.176338
     7  C   -0.328272
     8  H    0.061097
     9  H    0.097766
    10  H    0.111375
    11  H    0.087074
    12  H   -0.014921
    13  H   -0.094912
 Sum of Mulliken charges =  -0.00000

 Dipole moment (field-independent basis, Debye):
    X=              0.5197    Y=             -1.4482    Z=             -1.0039  Tot=              1.8371

 Test job not archived.
 1\1\GINC-SE028\SP\RHF\Aug-CC-pVDZ\C5H6O2\OHZDE\09-Apr-2025\0\\#t hf au
 g-cc-pvdz iop(5/13=1,5/36=2,99/5=2) pseudo=read geom=check guess=(read
 ,tcheck) scf=(maxcycle=1)\\title\\0,1\O,0,0.25110311,0.65552326,1.5699
 0033\C,0,0.57181107,0.93624069,0.39923289\C,0,1.58461879,0.01935411,-0
 .29047257\O,0,0.60961485,-1.01408204,-0.62963541\C,0,-0.71253906,-0.39
 245915,-0.49409464\C,0,-1.27177105,-0.48549413,0.87049404\C,0,-0.47373
 265,1.07442175,-0.55947268\H,0,2.32083654,-0.41295847,0.38417998\H,0,2
 .04946737,0.4346919,-1.18359414\H,0,-1.39404923,-0.79656007,-1.2449732

 Normal termination of Gaussian 16 at Wed Apr  9 19:04:56 2025.
