 Gaussian 16, Revision C.01,

 ----------------------------------------------------------------------
 #t hf aug-cc-pvdz symm=none int=(grid=ultrafine) guess=(read,tcheck) s
 table=(opt,rrhf)
 ----------------------------------------------------------------------
 -----
 title
 -----
 Symbolic Z-matrix:
 Charge =  0 Multiplicity = 1

 SCF Done:  E(RHF) =  -374.514808630     A.U. after   15 cycles
 Normal termination of Gaussian 16 at Wed Apr  9 18:20:25 2025.
 Gaussian 16:  ES64L-G16RevC.01  3-Jul-2019

 ----------------------------------------------------------------------
 #t hf aug-cc-pvdz iop(5/13=1,5/36=2,99/5=2) pseudo=read geom=check gue
 ss=(read,tcheck) scf=(maxcycle=1)
 ----------------------------------------------------------------------
 -----
 title
 -----
 Structure from the checkpoint file:  "Grambow2020_wb97xd3_007336_forward_mol1.chk"
 Charge =  0 Multiplicity = 1

                         Standard orientation:
 ---------------------------------------------------------------------
 Center     Atomic      Atomic             Coordinates (Angstroms)
 Number     Number       Type             X           Y           Z
 ---------------------------------------------------------------------
      1          7           0        2.327651   -0.454888   -0.203151
      2          6           0        1.044441   -0.017086    0.114686
      3          6           0        0.549958    1.316622   -0.033409
      4          8           0       -0.807022    1.149940   -0.023404
      5          6           0       -1.199806   -0.183401   -0.019530
      6          8           0       -2.328588   -0.553420   -0.065397
      7          7           0       -0.038134   -0.900815    0.069271
      8          1           0        2.760798   -1.041679    0.493318
      9          1           0        2.926840    0.316652   -0.457369
     10          1           0        1.013405    0.648975    1.171837
     11          1           0       -0.010342   -1.902994    0.069312
 ---------------------------------------------------------------------

 SCF Done:  E(RHF) =  -374.886008485     A.U. after    2 cycles

 The electronic state is 1-A.
 Alpha  occ. eigenvalues --  -20.62306 -20.54131 -15.57256 -15.54997 -11.43260
 Alpha  occ. eigenvalues --  -11.36871 -11.32330  -1.58350  -1.48759  -1.31973
 Alpha  occ. eigenvalues --   -1.23753  -1.05787  -0.91460  -0.88205  -0.79730
 Alpha  occ. eigenvalues --   -0.76512  -0.74215  -0.70142  -0.66591  -0.62076
 Alpha  occ. eigenvalues --   -0.57288  -0.54944  -0.50532  -0.49241  -0.42656
 Alpha  occ. eigenvalues --   -0.40770
 Alpha virt. eigenvalues --    0.01462   0.04087   0.04706   0.05095   0.08335
 Alpha virt. eigenvalues --    0.08706   0.09723   0.10492   0.11423   0.12304
 Alpha virt. eigenvalues --    0.12882   0.13839   0.14819   0.15828   0.16184

 Mulliken charges:
               1
     1  N    0.431604
     2  C   -1.516258
     3  C    0.392364
     4  O   -1.227713
     5  C    1.469816
     6  O   -1.182149
     7  N    0.787047
     8  H    0.182915
     9  H    0.231283
    10  H    0.396833
    11  H    0.034259
 Sum of Mulliken charges =  -0.00000

 Dipole moment (field-independent basis, Debye):
    X=              4.9343    Y=             -2.8888    Z=              1.5509  Tot=              5.9244

 Test job not archived.
 1\1\GINC-SE045\SP\RHF\Aug-CC-pVDZ\C3H4N2O2\OHZDE\09-Apr-2025\0\\#t hf
 aug-cc-pvdz iop(5/13=1,5/36=2,99/5=2) pseudo=read geom=check guess=(re
 ad,tcheck) scf=(maxcycle=1)\\title\\0,1\N,0,-1.77249375,-0.34681245,0.
 23562956\C,0,-0.48249429,0.13066918,0.01830104\C,0,0.03374533,1.389570
 92,0.45862492\O,0,1.38782177,1.2079717,0.40594788\C,0,1.75881806,-0.09
 679424,0.10256706\O,0,2.88144324,-0.48545184,0.0598631\N,0,0.5855568,-
 0.75780758,-0.13944895\H,0,-2.2155339,-0.75618863,-0.57253856\H,0,-2.3
 5888538,0.35773671,0.65833869\H,0,-0.44119056,1.01558794,-0.86339123\H

 Normal termination of Gaussian 16 at Wed Apr  9 18:20:29 2025.
