 Gaussian 16, Revision C.01,

 ----------------------------------------------------------------------
 #t hf aug-cc-pvdz symm=none int=(grid=ultrafine) guess=(read,tcheck) s
 table=(opt,rrhf)
 ----------------------------------------------------------------------
 -----
 title
 -----
 Symbolic Z-matrix:
 Charge =  0 Multiplicity = 1

 SCF Done:  E(RHF) =  -306.724983265     A.U. after   14 cycles
 Normal termination of Gaussian 16 at Wed Apr  9 19:08:57 2025.
 Gaussian 16:  ES64L-G16RevC.01  3-Jul-2019

 ----------------------------------------------------------------------
 #t hf aug-cc-pvdz iop(5/13=1,5/36=2,99/5=2) pseudo=read geom=check gue
 ss=(read,tcheck) scf=(maxcycle=1)
 ----------------------------------------------------------------------
 -----
 title
 -----
 Structure from the checkpoint file:  "Grambow2020_wb97xd3_008780_reverse_mol2.chk"
 Charge =  0 Multiplicity = 1

                         Standard orientation:
 ---------------------------------------------------------------------
 Center     Atomic      Atomic             Coordinates (Angstroms)
 Number     Number       Type             X           Y           Z
 ---------------------------------------------------------------------
      1          8           0       -0.349680   -1.133127   -0.227847
      2          6           0       -1.047055    0.019497   -0.020621
      3          6           0       -2.377976   -0.016387   -0.010086
      4          6           0        0.966201   -1.165479    0.307950
      5          6           0        1.810002   -0.008580   -0.193533
      6          6           0        1.051996    1.270874   -0.009679
      7          6           0       -0.272450    1.257427    0.101189
      8          1           0       -2.944576    0.898691    0.084556
      9          1           0       -2.908082   -0.952381   -0.119326
     10          1           0        0.909688   -1.138381    1.402909
     11          1           0        1.376942   -2.128782    0.008138
     12          1           0        2.753179    0.016769    0.358462
     13          1           0        2.065683   -0.149959   -1.249205
     14          1           0        1.598100    2.206455    0.032769
     15          1           0       -0.837802    2.168487    0.253148
 ---------------------------------------------------------------------

 SCF Done:  E(RHF) =  -307.044751988     A.U. after    2 cycles

 The electronic state is 1-A.
 Alpha  occ. eigenvalues --  -20.56040 -11.29791 -11.29292 -11.24950 -11.24511
 Alpha  occ. eigenvalues --  -11.24324 -11.21629  -1.49248  -1.10645  -1.07058
 Alpha  occ. eigenvalues --   -0.96459  -0.88679  -0.82001  -0.72821  -0.69992
 Alpha  occ. eigenvalues --   -0.66649  -0.64678  -0.59842  -0.58298  -0.58071
 Alpha  occ. eigenvalues --   -0.55059  -0.53870  -0.49930  -0.45970  -0.40317
 Alpha  occ. eigenvalues --   -0.31800
 Alpha virt. eigenvalues --    0.03278   0.03793   0.04185   0.04491   0.05629
 Alpha virt. eigenvalues --    0.05859   0.06761   0.08339   0.09297   0.11054
 Alpha virt. eigenvalues --    0.11761   0.12501   0.13831   0.14061   0.14783

 Mulliken charges:
               1
     1  O   -1.674755
     2  C    1.542654
     3  C    0.006390
     4  C    0.464362
     5  C   -0.719251
     6  C    0.011790
     7  C    0.519324
     8  H   -0.106593
     9  H   -0.188384
    10  H    0.164677
    11  H   -0.001575
    12  H    0.222748
    13  H    0.216864
    14  H   -0.182681
    15  H   -0.275569
 Sum of Mulliken charges =  -0.00000

 Dipole moment (field-independent basis, Debye):
    X=              1.8683    Y=              0.7745    Z=              0.4936  Tot=              2.0818

 Test job not archived.
 1\1\GINC-SE097\SP\RHF\Aug-CC-pVDZ\C6H8O1\OHZDE\09-Apr-2025\0\\#t hf au
 g-cc-pvdz iop(5/13=1,5/36=2,99/5=2) pseudo=read geom=check guess=(read
 ,tcheck) scf=(maxcycle=1)\\title\\0,1\O,0,-1.02924888,-0.51695602,0.65
 467892\C,0,-0.11248042,-1.17646639,-0.1084727\C,0,-0.25643683,-2.48363
 739,-0.31663089\C,0,-1.16487259,0.87380219,0.3957088\C,0,0.15977142,1.
 60366951,0.5161739\C,0,1.19696173,0.87917257,-0.28676934\C,0,1.0344011
 3,-0.40387875,-0.59333642\H,0,0.49797055,-3.03247004,-0.86161926\H,0,-
 1.11234952,-3.01618423,0.07431441\H,0,-1.57738864,1.01389255,-0.610803

 Normal termination of Gaussian 16 at Wed Apr  9 19:09:02 2025.
