 Gaussian 16, Revision C.01,

 ----------------------------------------------------------------------
 #t hf aug-cc-pvdz symm=none int=(grid=ultrafine) guess=(read,tcheck) s
 table=(opt,rrhf)
 ----------------------------------------------------------------------
 -----
 title
 -----
 Symbolic Z-matrix:
 Charge =  0 Multiplicity = 1

 SCF Done:  E(RHF) =  -302.730849105     A.U. after   18 cycles
 Normal termination of Gaussian 16 at Wed Apr  9 19:17:07 2025.
 Gaussian 16:  ES64L-G16RevC.01  3-Jul-2019

 ----------------------------------------------------------------------
 #t hf aug-cc-pvdz iop(5/13=1,5/36=2,99/5=2) pseudo=read geom=check gue
 ss=(read,tcheck) scf=(maxcycle=1)
 ----------------------------------------------------------------------
 -----
 title
 -----
 Structure from the checkpoint file:  "Grambow2020_wb97xd3_009053_forward_mol1.chk"
 Charge =  0 Multiplicity = 1

                         Standard orientation:
 ---------------------------------------------------------------------
 Center     Atomic      Atomic             Coordinates (Angstroms)
 Number     Number       Type             X           Y           Z
 ---------------------------------------------------------------------
      1          7           0       -1.796936    1.195389   -0.001253
      2          6           0       -0.182765   -0.019520    0.438998
      3          6           0       -1.553809   -0.298484    0.040417
      4          7           0       -2.216722   -1.289620   -0.173321
      5          6           0        0.961234   -0.130037   -0.413285
      6          6           0        2.241341   -0.696783    0.215397
      7          6           0        2.184736    0.731319   -0.125494
      8          1           0       -2.458428    1.580293    0.662606
      9          1           0       -1.908295    1.586104   -0.927691
     10          1           0       -0.003748    0.206308    1.490274
     11          1           0        0.767459   -0.403599   -1.441775
     12          1           0        2.189551   -0.992605    1.254073
     13          1           0        2.793924   -1.372123   -0.422923
     14          1           0        2.714820    1.080056   -1.000996
     15          1           0        2.095904    1.456210    0.672253
 ---------------------------------------------------------------------

 SCF Done:  E(RHF) =  -303.041343318     A.U. after    2 cycles

 The electronic state is 1-A.
 Alpha  occ. eigenvalues --  -15.50903 -15.40142 -11.36112 -11.29620 -11.29129
 Alpha  occ. eigenvalues --  -11.28999 -11.25204  -1.22679  -1.19585  -1.09881
 Alpha  occ. eigenvalues --   -1.02361  -0.87597  -0.86350  -0.79294  -0.71976
 Alpha  occ. eigenvalues --   -0.70538  -0.68782  -0.62510  -0.59411  -0.57341
 Alpha  occ. eigenvalues --   -0.53551  -0.50247  -0.49333  -0.44016  -0.40217
 Alpha  occ. eigenvalues --   -0.32727
 Alpha virt. eigenvalues --    0.02256   0.02482   0.02609   0.03818   0.04587
 Alpha virt. eigenvalues --    0.05522   0.05648   0.06627   0.08101   0.09526
 Alpha virt. eigenvalues --    0.10576   0.11748   0.12642   0.13255   0.13583

 Mulliken charges:
               1
     1  N    0.168020
     2  C    0.304026
     3  C   -2.286003
     4  N    0.900004
     5  C    0.701653
     6  C    0.324536
     7  C    0.226109
     8  H    0.155232
     9  H    0.186497
    10  H   -0.125905
    11  H   -0.136530
    12  H   -0.108062
    13  H   -0.097187
    14  H   -0.106580
    15  H   -0.105809
 Sum of Mulliken charges =  -0.00000

 Dipole moment (field-independent basis, Debye):
    X=              7.4862    Y=              4.6206    Z=              1.1248  Tot=              8.8689

 Test job not archived.
 1\1\GINC-SE098\SP\RHF\Aug-CC-pVDZ\C5H8N2\OHZDE\09-Apr-2025\0\\#t hf au
 g-cc-pvdz iop(5/13=1,5/36=2,99/5=2) pseudo=read geom=check guess=(read
 ,tcheck) scf=(maxcycle=1)\\title\\0,1\N,0,2.3872974,-0.258416,0.109783
 97\C,0,0.44074388,0.32991947,0.48416892\C,0,1.66816513,1.06852728,0.23
 050591\N,0,1.98372575,2.23497361,0.1449843\C,0,-0.62041924,0.14782598,
 -0.45822704\C,0,-2.0524222,0.2142521,0.08955995\C,0,-1.51174145,-1.082
 40692,-0.34081834\H,0,3.09475509,-0.47174915,0.80290992\H,0,2.67835221
 ,-0.50479889,-0.82719443\H,0,0.27904109,-0.03831239,1.49732442\H,0,-0.

 Normal termination of Gaussian 16 at Wed Apr  9 19:17:12 2025.
