 Gaussian 16, Revision C.01,

 ----------------------------------------------------------------------
 #t hf aug-cc-pvdz symm=none int=(grid=ultrafine) guess=(read,tcheck) s
 table=(opt,rrhf)
 ----------------------------------------------------------------------
 -----
 title
 -----
 Symbolic Z-matrix:
 Charge =  0 Multiplicity = 1

 SCF Done:  E(RHF) =  -342.550825233     A.U. after   15 cycles
 Normal termination of Gaussian 16 at Wed Apr  9 19:04:49 2025.
 Gaussian 16:  ES64L-G16RevC.01  3-Jul-2019

 ----------------------------------------------------------------------
 #t hf aug-cc-pvdz iop(5/13=1,5/36=2,99/5=2) pseudo=read geom=check gue
 ss=(read,tcheck) scf=(maxcycle=1)
 ----------------------------------------------------------------------
 -----
 title
 -----
 Structure from the checkpoint file:  "Grambow2020_wb97xd3_008511_forward_mol2.chk"
 Charge =  0 Multiplicity = 1

                         Standard orientation:
 ---------------------------------------------------------------------
 Center     Atomic      Atomic             Coordinates (Angstroms)
 Number     Number       Type             X           Y           Z
 ---------------------------------------------------------------------
      1          8           0       -2.150444   -0.587115   -0.024965
      2          6           0       -1.012325   -0.206930   -0.037882
      3          6           0       -0.556723    1.219854    0.260784
      4          8           0        0.791820    1.325188   -0.150818
      5          6           0        1.298183    0.048947   -0.437287
      6          6           0        1.305705   -0.940196    0.663480
      7          6           0        0.205756   -0.979002   -0.391859
      8          1           0       -0.669179    1.429678    1.330444
      9          1           0       -1.168768    1.932205   -0.295151
     10          1           0        2.067898    0.061225   -1.196119
     11          1           0        1.055548   -0.608776    1.663463
     12          1           0        2.021444   -1.749643    0.616879
     13          1           0        0.118470   -1.825312   -1.056670
 ---------------------------------------------------------------------

 SCF Done:  E(RHF) =  -342.898022938     A.U. after    2 cycles

 The electronic state is 1-A.
 Alpha  occ. eigenvalues --  -20.56921 -20.54392 -11.34894 -11.31593 -11.30412
 Alpha  occ. eigenvalues --  -11.26509 -11.26067  -1.50245  -1.48000  -1.17650
 Alpha  occ. eigenvalues --   -1.02079  -0.90042  -0.83441  -0.78444  -0.73179
 Alpha  occ. eigenvalues --   -0.68047  -0.65723  -0.63190  -0.62149  -0.57995
 Alpha  occ. eigenvalues --   -0.56607  -0.55384  -0.50854  -0.44462  -0.42914
 Alpha  occ. eigenvalues --   -0.39407
 Alpha virt. eigenvalues --    0.03053   0.03736   0.04199   0.04653   0.05845
 Alpha virt. eigenvalues --    0.06954   0.09056   0.09838   0.10717   0.11313
 Alpha virt. eigenvalues --    0.12951   0.13938   0.14155   0.14467   0.15055

 Mulliken charges:
               1
     1  O   -1.362028
     2  C    0.873587
     3  C    0.377486
     4  O   -1.470192
     5  C    1.551127
     6  C    0.121227
     7  C    0.155535
     8  H    0.199869
     9  H    0.093898
    10  H   -0.143161
    11  H   -0.110327
    12  H   -0.115920
    13  H   -0.171100
 Sum of Mulliken charges =   0.00000

 Dipole moment (field-independent basis, Debye):
    X=              2.6319    Y=             -0.3879    Z=              0.0923  Tot=              2.6619

 Test job not archived.
 1\1\GINC-SE045\SP\RHF\Aug-CC-pVDZ\C5H6O2\OHZDE\09-Apr-2025\0\\#t hf au
 g-cc-pvdz iop(5/13=1,5/36=2,99/5=2) pseudo=read geom=check guess=(read
 ,tcheck) scf=(maxcycle=1)\\title\\0,1\O,0,1.17938793,2.02856896,0.7460
 7718\C,0,0.71420924,1.02082973,0.28990704\C,0,1.51403356,-0.21943675,-
 0.10317001\O,0,0.65805667,-1.04729225,-0.86542864\C,0,-0.65939873,-0.5
 7502569,-0.77305753\C,0,-1.2687264,-0.52504418,0.57467009\C,0,-0.70283
 051,0.74263713,-0.05610663\H,0,1.87283884,-0.73100772,0.79705227\H,0,2
 .37941663,0.06792179,-0.70287215\H,0,-1.24664835,-0.78831169,-1.655149

 Normal termination of Gaussian 16 at Wed Apr  9 19:04:54 2025.
