 Gaussian 16, Revision C.01,

 ----------------------------------------------------------------------
 #t hf aug-cc-pvdz symm=none int=(grid=ultrafine) guess=(read,tcheck) s
 table=(opt,rrhf)
 ----------------------------------------------------------------------
 -----
 title
 -----
 Symbolic Z-matrix:
 Charge =  0 Multiplicity = 1

 SCF Done:  E(RHF) =  -305.839543135     A.U. after   13 cycles
 Normal termination of Gaussian 16 at Wed Apr  9 03:15:32 2025.
 Gaussian 16:  ES64L-G16RevC.01  3-Jul-2019

 ----------------------------------------------------------------------
 #t hf aug-cc-pvdz iop(5/13=1,5/36=2,99/5=2) pseudo=read geom=check gue
 ss=(read,tcheck) scf=(maxcycle=1)
 ----------------------------------------------------------------------
 -----
 title
 -----
 Structure from the checkpoint file:  "Grambow2020_b97d3_006957_forward_mol2.chk"
 Charge =  0 Multiplicity = 1

                         Standard orientation:
 ---------------------------------------------------------------------
 Center     Atomic      Atomic             Coordinates (Angstroms)
 Number     Number       Type             X           Y           Z
 ---------------------------------------------------------------------
      1          8           0       -1.728367   -0.989280    0.235332
      2          6           0       -1.652832    0.355728   -0.211194
      3          6           0       -0.376667    1.058691    0.287067
      4          6           0        0.862937    0.521435   -0.399530
      5          6           0        2.005675   -0.033741    0.346251
      6          8           0        1.071826   -0.916914   -0.300675
      7          1           0       -0.832944   -1.364793    0.107786
      8          1           0       -1.698502    0.429196   -1.316889
      9          1           0       -2.538936    0.869894    0.187095
     10          1           0       -0.438836    2.142474    0.100623
     11          1           0       -0.302205    0.910839    1.374216
     12          1           0        1.049471    0.899409   -1.410757
     13          1           0        1.973286   -0.032155    1.439945
     14          1           0        3.006313   -0.017993   -0.094832
 ---------------------------------------------------------------------

 SCF Done:  E(RHF) =  -306.156635319     A.U. after    2 cycles

 The electronic state is 1-A.
 Alpha  occ. eigenvalues --  -20.57287 -20.53129 -11.31082 -11.30817 -11.28607
 Alpha  occ. eigenvalues --  -11.24927  -1.49702  -1.42945  -1.05510  -0.94710
 Alpha  occ. eigenvalues --   -0.88363  -0.81658  -0.71290  -0.68995  -0.64921
 Alpha  occ. eigenvalues --   -0.63100  -0.59502  -0.56104  -0.53998  -0.52571
 Alpha  occ. eigenvalues --   -0.50693  -0.45566  -0.44418  -0.42460
 Alpha virt. eigenvalues --    0.03165   0.03653   0.03883   0.05254   0.05798
 Alpha virt. eigenvalues --    0.06556   0.07702   0.08586   0.09801   0.12217
 Alpha virt. eigenvalues --    0.13242   0.13695   0.14534   0.14805   0.15278

 Mulliken charges:
               1
     1  O   -1.215918
     2  C    0.678657
     3  C   -0.756356
     4  C    1.218431
     5  C    0.324852
     6  O   -1.273518
     7  H    0.457523
     8  H    0.161235
     9  H    0.065632
    10  H    0.197899
    11  H    0.154279
    12  H   -0.063241
    13  H    0.027996
    14  H    0.022528
 Sum of Mulliken charges =  -0.00000

 Dipole moment (field-independent basis, Debye):
    X=              2.2681    Y=              2.9166    Z=             -0.0594  Tot=              3.6952

 Test job not archived.
 1\1\GINC-SE222\SP\RHF\Aug-CC-pVDZ\C4H8O2\OHZDE\09-Apr-2025\0\\#t hf au
 g-cc-pvdz iop(5/13=1,5/36=2,99/5=2) pseudo=read geom=check guess=(read
 ,tcheck) scf=(maxcycle=1)\\title\\0,1\O,0,1.82350698,1.02184646,0.5429
 814\C,0,1.68199362,-0.24414674,-0.08261717\C,0,0.28643695,-0.85120184,
 0.15174637\C,0,-0.78625195,-0.09982751,-0.61078448\C,0,-1.96360838,0.4
 9018072,0.04950588\O,0,-0.86696546,1.33134332,-0.35099541\H,0,0.995524
 06,1.50897287,0.35268458\H,0,1.87569689,-0.19209683,-1.17340332\H,0,2.
 44923972,-0.89877146,0.35439714\H,0,0.26920413,-1.90562621,-0.16622036

 Normal termination of Gaussian 16 at Wed Apr  9 03:15:36 2025.
