 Gaussian 16, Revision C.01,

 ----------------------------------------------------------------------
 #t hf aug-cc-pvdz symm=none int=(grid=ultrafine) guess=(read,tcheck) s
 table=(opt,rrhf)
 ----------------------------------------------------------------------
 -----
 title
 -----
 Symbolic Z-matrix:
 Charge =  0 Multiplicity = 1

 SCF Done:  E(RHF) =  -337.600473654     A.U. after   15 cycles
 Normal termination of Gaussian 16 at Wed Apr  9 03:58:23 2025.
 Gaussian 16:  ES64L-G16RevC.01  3-Jul-2019

 ----------------------------------------------------------------------
 #t hf aug-cc-pvdz iop(5/13=1,5/36=2,99/5=2) pseudo=read geom=check gue
 ss=(read,tcheck) scf=(maxcycle=1)
 ----------------------------------------------------------------------
 -----
 title
 -----
 Structure from the checkpoint file:  "Grambow2020_wb97xd3_008689_forward_mol2.chk"
 Charge =  0 Multiplicity = 1

                         Standard orientation:
 ---------------------------------------------------------------------
 Center     Atomic      Atomic             Coordinates (Angstroms)
 Number     Number       Type             X           Y           Z
 ---------------------------------------------------------------------
      1          8           0        2.489141   -0.415905   -0.000787
      2          6           0        1.689261    0.491228    0.000790
      3          6           0        0.254625    0.284611   -0.000151
      4          6           0       -0.815958    1.145854   -0.000380
      5          7           0       -1.985514    0.453843   -0.000242
      6          6           0       -1.635316   -0.813771    0.000225
      7          7           0       -0.300497   -0.970603   -0.000059
      8          1           0        2.014601    1.547431    0.004182
      9          1           0       -0.792446    2.225212   -0.001244
     10          1           0       -2.318472   -1.649675    0.002061
     11          1           0        0.229594   -1.825943    0.000498
 ---------------------------------------------------------------------

 SCF Done:  E(RHF) =  -337.939351860     A.U. after    2 cycles

 The electronic state is 1-A.
 Alpha  occ. eigenvalues --  -20.55081 -15.57998 -15.50567 -11.35652 -11.33012
 Alpha  occ. eigenvalues --  -11.28720 -11.28023  -1.48508  -1.37073  -1.20327
 Alpha  occ. eigenvalues --   -1.06688  -0.92002  -0.88072  -0.85357  -0.77011
 Alpha  occ. eigenvalues --   -0.69759  -0.66183  -0.66176  -0.63872  -0.62354
 Alpha  occ. eigenvalues --   -0.54698  -0.50832  -0.46500  -0.43842  -0.35925
 Alpha virt. eigenvalues --    0.02897   0.04072   0.05136   0.05345   0.06255
 Alpha virt. eigenvalues --    0.08439   0.09111   0.09753   0.09760   0.12158
 Alpha virt. eigenvalues --    0.12727   0.13279   0.14181   0.15151   0.15281

 Mulliken charges:
               1
     1  O   -1.306861
     2  C    1.346751
     3  C   -0.086935
     4  C   -0.584908
     5  N    0.560547
     6  C   -0.677699
     7  N    0.793455
     8  H    0.104159
     9  H   -0.129256
    10  H   -0.043602
    11  H    0.024348
 Sum of Mulliken charges =  -0.00000

 Dipole moment (field-independent basis, Debye):
    X=             -0.4556    Y=             -0.6931    Z=              0.0062  Tot=              0.8295

 Test job not archived.
 1\1\GINC-SE365\SP\RHF\Aug-CC-pVDZ\C4H4N2O1\OHZDE\09-Apr-2025\0\\#t hf
 aug-cc-pvdz iop(5/13=1,5/36=2,99/5=2) pseudo=read geom=check guess=(re
 ad,tcheck) scf=(maxcycle=1)\\title\\0,1\O,0,-2.2227708,-1.41424827,0.0
 8267314\C,0,-1.83060018,-0.27282357,0.00487404\C,0,-0.42604633,0.08483
 842,-0.00847477\C,0,0.23377793,1.28750098,-0.08670654\N,0,1.5790373,1.
 09650376,-0.0635333\C,0,1.74022419,-0.20550089,0.02749346\N,0,0.566875
 69,-0.85989441,0.06437798\H,0,-2.53508303,0.57603739,-0.06266299\H,0,-
 0.20071366,2.27328951,-0.15745292\H,0,2.69110895,-0.7150217,0.06810299

 Normal termination of Gaussian 16 at Wed Apr  9 03:58:26 2025.
