 Gaussian 16, Revision C.01,

 ----------------------------------------------------------------------
 #t hf aug-cc-pvdz symm=none int=(grid=ultrafine) guess=(read,tcheck) s
 table=(opt,rrhf)
 ----------------------------------------------------------------------
 -----
 title
 -----
 Symbolic Z-matrix:
 Charge =  0 Multiplicity = 1

 SCF Done:  E(RHF) =  -341.378582190     A.U. after   15 cycles
 Normal termination of Gaussian 16 at Wed Apr  9 19:17:43 2025.
 Gaussian 16:  ES64L-G16RevC.01  3-Jul-2019

 ----------------------------------------------------------------------
 #t hf aug-cc-pvdz iop(5/13=1,5/36=2,99/5=2) pseudo=read geom=check gue
 ss=(read,tcheck) scf=(maxcycle=1)
 ----------------------------------------------------------------------
 -----
 title
 -----
 Structure from the checkpoint file:  "Grambow2020_wb97xd3_009087_reverse_mol2.chk"
 Charge =  0 Multiplicity = 1

                         Standard orientation:
 ---------------------------------------------------------------------
 Center     Atomic      Atomic             Coordinates (Angstroms)
 Number     Number       Type             X           Y           Z
 ---------------------------------------------------------------------
      1          8           0        2.534563   -0.998397    0.001496
      2          6           0        1.427112   -0.519629    0.003316
      3          6           0        1.161567    0.915284   -0.005033
      4          6           0       -0.050961    1.491305   -0.002341
      5          6           0       -1.388643    0.931160    0.005961
      6          6           0       -1.748151   -0.339698    0.000258
      7          8           0       -2.120506   -1.427578   -0.004800
      8          1           0        0.545300   -1.192733    0.012169
      9          1           0        2.040322    1.548989   -0.010797
     10          1           0       -0.066638    2.576082   -0.005050
     11          1           0       -2.236983    1.604934    0.017149
 ---------------------------------------------------------------------

 SCF Done:  E(RHF) =  -341.713171558     A.U. after    2 cycles

 The electronic state is 1-A.
 Alpha  occ. eigenvalues --  -20.65494 -20.54325 -11.42840 -11.34329 -11.30528
 Alpha  occ. eigenvalues --  -11.28240 -11.25361  -1.60005  -1.47508  -1.14584
 Alpha  occ. eigenvalues --   -1.05422  -0.91664  -0.81597  -0.77941  -0.73963
 Alpha  occ. eigenvalues --   -0.69818  -0.67862  -0.66005  -0.63038  -0.59723
 Alpha  occ. eigenvalues --   -0.56782  -0.54927  -0.46983  -0.42367  -0.34524
 Alpha virt. eigenvalues --    0.02222   0.03594   0.04905   0.05049   0.06076
 Alpha virt. eigenvalues --    0.08057   0.09366   0.09470   0.10955   0.12270
 Alpha virt. eigenvalues --    0.12693   0.12867   0.13655   0.14202   0.14671

 Mulliken charges:
               1
     1  O   -1.166334
     2  C    0.685216
     3  C    0.690323
     4  C    0.185031
     5  C    1.082983
     6  C   -0.025563
     7  O   -0.828147
     8  H   -0.043811
     9  H   -0.255716
    10  H   -0.201458
    11  H   -0.122524
 Sum of Mulliken charges =  -0.00000

 Dipole moment (field-independent basis, Debye):
    X=             -3.5803    Y=              3.0679    Z=              0.0118  Tot=              4.7150

 Test job not archived.
 1\1\GINC-SE098\SP\RHF\Aug-CC-pVDZ\C5H4O2\OHZDE\09-Apr-2025\0\\#t hf au
 g-cc-pvdz iop(5/13=1,5/36=2,99/5=2) pseudo=read geom=check guess=(read
 ,tcheck) scf=(maxcycle=1)\\title\\0,1\O,0,-2.08819491,1.96766106,-0.36
 857466\C,0,-1.14534402,1.24263358,-0.16599733\C,0,-1.13440103,-0.18312
 585,-0.47688141\C,0,-0.11089825,-1.02629941,-0.26823669\C,0,1.21400287
 ,-0.82213465,0.28509691\C,0,1.75798167,0.29820134,0.72474616\O,0,2.283
 35948,1.24151437,1.1200898\H,0,-0.22291045,1.66510715,0.28274755\H,0,-
 2.04857175,-0.56953714,-0.91139829\H,0,-0.27476727,-2.05974268,-0.5548

 Normal termination of Gaussian 16 at Wed Apr  9 19:17:47 2025.
