 Gaussian 16, Revision C.01,

 ----------------------------------------------------------------------
 #t hf aug-cc-pvdz symm=none int=(grid=ultrafine) guess=(read,tcheck) s
 table=(opt,rrhf)
 ----------------------------------------------------------------------
 -----
 title
 -----
 Symbolic Z-matrix:
 Charge =  0 Multiplicity = 1

 SCF Done:  E(RHF) =  -307.755346645     A.U. after   16 cycles

 1\1\GINC-SE162\Stability\RHF\Aug-CC-pVDZ\C6H10O1\OHZDE\09-Apr-2025\0\\
 #t hf aug-cc-pvdz symm=none int=(grid=ultrafine) guess=(read,tcheck) s
 table=(opt,rrhf)\\title\\0,1\C,0,-1.79747102,0.24421806,-0.02958018\C,
 0,-0.75221809,0.26806458,1.08670444\C,0,0.04817938,-0.99255729,1.14705
 811\C,0,1.35747187,-1.04147036,0.80956373\C,0,1.80270022,-0.02413829,-
 0.07002388\C,0,1.10774421,1.25608032,0.0443778\O,0,0.08911726,1.392108
 15,1.03335889\H,0,-2.49390552,-0.5840811,0.11406563\H,0,-1.32786845,0.
 1226186,-1.00729186\H,0,-2.36054373,1.17760562,-0.0219428\H,0,-1.27415

 Normal termination of Gaussian 16 at Wed Apr  9 19:17:15 2025.
 Gaussian 16:  ES64L-G16RevC.01  3-Jul-2019

 ----------------------------------------------------------------------
 #t hf aug-cc-pvdz iop(5/13=1,5/36=2,99/5=2) pseudo=read geom=check gue
 ss=(read,tcheck) scf=(maxcycle=1)
 ----------------------------------------------------------------------
 -----
 title
 -----
 Structure from the checkpoint file:  "Grambow2020_wb97xd3_009039_reverse_mol2.chk"
 Charge =  0 Multiplicity = 1

                         Standard orientation:
 ---------------------------------------------------------------------
 Center     Atomic      Atomic             Coordinates (Angstroms)
 Number     Number       Type             X           Y           Z
 ---------------------------------------------------------------------
      1          6           0       -1.878662    0.149149    0.746169
      2          6           0       -1.003937    0.163861   -0.508364
      3          6           0        0.009075    1.262379   -0.485775
      4          6           0        1.335095    1.028415   -0.353594
      5          6           0        1.683045   -0.196594    0.267013
      6          6           0        0.747276   -1.298498    0.054519
      7          8           0       -0.393196   -1.073757   -0.771921
      8          1           0       -2.416099    1.093590    0.850700
      9          1           0       -1.276912    0.003741    1.645050
     10          1           0       -2.606426   -0.659215    0.673859
     11          1           0       -1.647348    0.350728   -1.375985
     12          1           0        0.938027    0.484549    3.498211
     13          1           0       -0.376778    2.278379   -0.540699
     14          1           0        2.051714    1.840470   -0.420573
     15          1           0        1.359864    0.341595    2.897302
     16          1           0        1.319851   -2.108094   -0.412367
     17          1           0        0.448325   -1.687962    1.040058
 ---------------------------------------------------------------------

 SCF Done:  E(RHF) =  -308.078573867     A.U. after    2 cycles

 The electronic state is 1-A.
 Alpha  occ. eigenvalues --  -20.54874 -11.30810 -11.28941 -11.28707 -11.25297
 Alpha  occ. eigenvalues --  -11.24527 -11.24192  -1.47497  -1.11858  -1.06409
 Alpha  occ. eigenvalues --   -0.97615  -0.87852  -0.84426  -0.72376  -0.69262
 Alpha  occ. eigenvalues --   -0.66461  -0.64793  -0.60358  -0.58935  -0.57854
 Alpha  occ. eigenvalues --   -0.57503  -0.56230  -0.52421  -0.48344  -0.43721
 Alpha  occ. eigenvalues --   -0.40267  -0.34065
 Alpha virt. eigenvalues --    0.02847   0.03347   0.04049   0.04186   0.05256
 Alpha virt. eigenvalues --    0.05735   0.06335   0.06823   0.08070   0.08672
 Alpha virt. eigenvalues --    0.10339   0.10983   0.12153   0.12768   0.13761

 Mulliken charges:
               1
     1  C   -0.382123
     2  C    0.722979
     3  C    0.352823
     4  C    0.569105
     5  C   -0.803528
     6  C    0.369978
     7  O   -1.530565
     8  H    0.146594
     9  H    0.143841
    10  H    0.180141
    11  H    0.104860
    12  H    0.027132
    13  H   -0.167517
    14  H   -0.083250
    15  H   -0.010912
    16  H    0.076165
    17  H    0.284279
 Sum of Mulliken charges =  -0.00000

 Dipole moment (field-independent basis, Debye):
    X=             -2.4496    Y=              1.6495    Z=             -0.4180  Tot=              2.9827

 Test job not archived.
 1\1\GINC-SE162\SP\RHF\Aug-CC-pVDZ\C6H10O1\OHZDE\09-Apr-2025\0\\#t hf a
 ug-cc-pvdz iop(5/13=1,5/36=2,99/5=2) pseudo=read geom=check guess=(rea
 d,tcheck) scf=(maxcycle=1)\\title\\0,1\C,0,-1.79747102,0.24421806,-0.0
 2958018\C,0,-0.75221809,0.26806458,1.08670444\C,0,0.04817938,-0.992557
 29,1.14705811\C,0,1.35747187,-1.04147036,0.80956373\C,0,1.80270022,-0.
 02413829,-0.07002388\C,0,1.10774421,1.25608032,0.0443778\O,0,0.0891172
 6,1.39210815,1.03335889\H,0,-2.49390552,-0.5840811,0.11406563\H,0,-1.3
 2786845,0.1226186,-1.00729186\H,0,-2.36054373,1.17760562,-0.0219428\H,

 Normal termination of Gaussian 16 at Wed Apr  9 19:17:21 2025.
