 Gaussian 16, Revision C.01,

 ----------------------------------------------------------------------
 #t hf aug-cc-pvdz symm=none int=(grid=ultrafine) guess=(read,tcheck) s
 table=(opt,rrhf)
 ----------------------------------------------------------------------
 -----
 title
 -----
 Symbolic Z-matrix:
 Charge =  0 Multiplicity = 1

 SCF Done:  E(RHF) =  -283.609373759     A.U. after   16 cycles
 Normal termination of Gaussian 16 at Wed Apr  9 16:29:47 2025.
 Gaussian 16:  ES64L-G16RevC.01  3-Jul-2019

 ----------------------------------------------------------------------
 #t hf aug-cc-pvdz iop(5/13=1,5/36=2,99/5=2) pseudo=read geom=check gue
 ss=(read,tcheck) scf=(maxcycle=1)
 ----------------------------------------------------------------------
 -----
 title
 -----
 Structure from the checkpoint file:  "Grambow2020_wb97xd3_006129_reverse_mol2.chk"
 Charge =  0 Multiplicity = 1

                         Standard orientation:
 ---------------------------------------------------------------------
 Center     Atomic      Atomic             Coordinates (Angstroms)
 Number     Number       Type             X           Y           Z
 ---------------------------------------------------------------------
      1          7           0        2.616338   -0.330135   -0.191560
      2          6           0        1.469091   -0.272285   -0.126405
      3          6           0        0.068777   -0.173297   -0.058762
      4          6           0       -0.979887    0.784042   -0.567365
      5          8           0       -1.972135   -0.077515    0.080949
      6          6           0       -0.942320   -0.864221    0.483123
      7          1           0        1.719898    2.335687    1.413241
      8          1           0       -1.146154    0.810508   -1.643030
      9          1           0       -0.994758    1.779568   -0.127092
     10          1           0       -1.100908   -1.757527    1.071393
     11          1           0        1.290676    2.917395    1.595277
 ---------------------------------------------------------------------

 SCF Done:  E(RHF) =  -283.895394330     A.U. after    2 cycles

 The electronic state is 1-A.
 Alpha  occ. eigenvalues --  -20.60693 -15.52147 -11.35941 -11.33917 -11.29389
 Alpha  occ. eigenvalues --  -11.28587  -1.55142  -1.24382  -1.10120  -0.97827
 Alpha  occ. eigenvalues --   -0.87309  -0.78155  -0.71140  -0.68667  -0.62038
 Alpha  occ. eigenvalues --   -0.59803  -0.57906  -0.56515  -0.54665  -0.53164
 Alpha  occ. eigenvalues --   -0.50048  -0.38177
 Alpha virt. eigenvalues --    0.03172   0.03578   0.04537   0.06401   0.07070
 Alpha virt. eigenvalues --    0.07773   0.09167   0.09830   0.10010   0.10948
 Alpha virt. eigenvalues --    0.11764   0.12358   0.14346   0.15141   0.15897

 Mulliken charges:
               1
     1  N    1.061817
     2  C   -2.657176
     3  C    1.295412
     4  C    0.528997
     5  O   -1.301839
     6  C    0.953834
     7  H   -0.089938
     8  H    0.114985
     9  H    0.113687
    10  H   -0.110577
    11  H    0.090799
 Sum of Mulliken charges =   0.00000

 Dipole moment (field-independent basis, Debye):
    X=             -4.0786    Y=              0.2374    Z=              0.2187  Tot=              4.0913

 Test job not archived.
 1\1\GINC-SE125\SP\RHF\Aug-CC-pVDZ\C4H5N1O1\OHZDE\09-Apr-2025\0\\#t hf
 aug-cc-pvdz iop(5/13=1,5/36=2,99/5=2) pseudo=read geom=check guess=(re
 ad,tcheck) scf=(maxcycle=1)\\title\\0,1\N,0,2.56752782,-0.75460142,-0.
 63860151\C,0,1.62820322,-0.28827956,-0.16533579\C,0,0.46603584,0.25462
 19,0.40901592\C,0,-0.86456564,-0.2765004,0.88047987\O,0,-1.20397367,1.
 10394449,1.23589829\C,0,0.02277368,1.46254496,0.78019371\H,0,0.0177945
 2,-1.1431489,-2.59653126\H,0,-0.85975209,-0.90617975,1.76866921\H,0,-1
 .5449293,-0.65126044,0.11772563\H,0,0.36144081,2.48930252,0.79690493\H

 Normal termination of Gaussian 16 at Wed Apr  9 16:29:53 2025.
