 Gaussian 16, Revision C.01,

 ----------------------------------------------------------------------
 #t hf aug-cc-pvdz symm=none int=(grid=ultrafine) guess=(read,tcheck) s
 table=(opt,rrhf)
 ----------------------------------------------------------------------
 -----
 title
 -----
 Symbolic Z-matrix:
 Charge =  0 Multiplicity = 1

 SCF Done:  E(RHF) =  -262.498310681     A.U. after   17 cycles
 Normal termination of Gaussian 16 at Wed Apr  9 15:55:39 2025.
 Gaussian 16:  ES64L-G16RevC.01  3-Jul-2019

 ----------------------------------------------------------------------
 #t hf aug-cc-pvdz iop(5/13=1,5/36=2,99/5=2) pseudo=read geom=check gue
 ss=(read,tcheck) scf=(maxcycle=1)
 ----------------------------------------------------------------------
 -----
 title
 -----
 Structure from the checkpoint file:  "Grambow2020_b97d3_006900_reverse_mol1.chk"
 Charge =  0 Multiplicity = 1

                         Standard orientation:
 ---------------------------------------------------------------------
 Center     Atomic      Atomic             Coordinates (Angstroms)
 Number     Number       Type             X           Y           Z
 ---------------------------------------------------------------------
      1          6           0       -1.202252   -0.798954   -0.107972
      2          6           0        0.089513   -0.818608    0.554578
      3          7           0        1.214622   -0.747859   -0.296581
      4          7           0        1.282053    0.546189   -0.296547
      5          6           0        0.033097    1.094468    0.241656
      6          6           0       -1.272683    0.572394   -0.166344
      7          1           0       -1.682004   -1.574664   -0.697444
      8          1           0        0.251711   -0.627208    1.619031
      9          1           0        0.148473    2.108236    0.633800
     10          1           0       -2.080948    1.209527   -0.534998
 ---------------------------------------------------------------------

 SCF Done:  E(RHF) =  -262.761978622     A.U. after    2 cycles

 The electronic state is 1-A.
 Alpha  occ. eigenvalues --  -15.58872 -15.56516 -11.35582 -11.29084 -11.28237
 Alpha  occ. eigenvalues --  -11.27128  -1.39226  -1.14756  -1.05243  -0.91309
 Alpha  occ. eigenvalues --   -0.86520  -0.75976  -0.72654  -0.70414  -0.63990
 Alpha  occ. eigenvalues --   -0.62027  -0.56803  -0.52557  -0.47108  -0.40364
 Alpha  occ. eigenvalues --   -0.34729
 Alpha virt. eigenvalues --    0.03148   0.03549   0.04031   0.05041   0.06127
 Alpha virt. eigenvalues --    0.07108   0.08686   0.09685   0.10915   0.12281
 Alpha virt. eigenvalues --    0.12646   0.13370   0.13949   0.14951   0.15432

 Mulliken charges:
               1
     1  C    0.476663
     2  C   -0.635926
     3  N    0.070181
     4  N   -0.002628
     5  C   -0.341480
     6  C    0.381634
     7  H   -0.035645
     8  H    0.229121
     9  H   -0.091598
    10  H   -0.050321
 Sum of Mulliken charges =   0.00000

 Dipole moment (field-independent basis, Debye):
    X=             -3.4448    Y=              0.1647    Z=              1.6508  Tot=              3.8234

 Test job not archived.
 1\1\GINC-SE162\SP\RHF\Aug-CC-pVDZ\C4H4N2\OHZDE\09-Apr-2025\0\\#t hf au
 g-cc-pvdz iop(5/13=1,5/36=2,99/5=2) pseudo=read geom=check guess=(read
 ,tcheck) scf=(maxcycle=1)\\title\\0,1\C,0,0.80605933,0.97979152,0.0901
 9822\C,0,0.97792371,-0.40449785,-0.31256881\N,0,0.92460836,-1.3560056,
 0.73008984\N,0,-0.35624117,-1.53873151,0.65838707\C,0,-0.95291434,-0.4
 6439166,-0.14157416\C,0,-0.5668709,0.93576153,0.04451723\H,0,1.4925566
 6,1.62755145,0.62731434\H,0,0.88632134,-0.77588358,-1.33710937\H,0,-1.
 91980461,-0.7407318,-0.57002815\H,0,-1.29163937,1.7371385,0.2107738\\V

 Normal termination of Gaussian 16 at Wed Apr  9 15:55:42 2025.
