 Gaussian 16, Revision C.01,

 ----------------------------------------------------------------------
 #t hf aug-cc-pvdz symm=none int=(grid=ultrafine) guess=(read,tcheck) s
 table=(opt,rrhf)
 ----------------------------------------------------------------------
 -----
 title
 -----
 Symbolic Z-matrix:
 Charge =  0 Multiplicity = 1

 SCF Done:  E(RHF) =  -232.887585772     A.U. after   14 cycles
 Normal termination of Gaussian 16 at Wed Apr  9 03:07:57 2025.
 Gaussian 16:  ES64L-G16RevC.01  3-Jul-2019

 ----------------------------------------------------------------------
 #t hf aug-cc-pvdz iop(5/13=1,5/36=2,99/5=2) pseudo=read geom=check gue
 ss=(read,tcheck) scf=(maxcycle=1)
 ----------------------------------------------------------------------
 -----
 title
 -----
 Structure from the checkpoint file:  "Grambow2020_b97d3_006586_reverse_mol2.chk"
 Charge =  0 Multiplicity = 1

                         Standard orientation:
 ---------------------------------------------------------------------
 Center     Atomic      Atomic             Coordinates (Angstroms)
 Number     Number       Type             X           Y           Z
 ---------------------------------------------------------------------
      1          6           0        0.902627   -0.870778    0.815294
      2          6           0        1.363708   -0.735453   -0.622328
      3          6           0        0.261366    0.149950   -0.089292
      4          6           0        0.560233    1.623302    0.140546
      5          6           0       -2.343474   -0.182402    0.285994
      6          6           0       -1.171291   -0.087725   -0.563347
      7          1           0        1.565227   -0.512911    1.603609
      8          1           0        0.327091   -1.756340    1.088848
      9          1           0        1.095525   -1.529183   -1.320995
     10          1           0        2.339358   -0.285353   -0.810426
     11          1           0        0.406488    2.204572   -0.781103
     12          1           0        1.601526    1.766686    0.460842
     13          1           0       -0.097633    2.038793    0.918746
     14          1           0       -1.942577   -0.431778    1.304072
     15          1           0       -1.355218    0.333726   -1.565912
     16          1           0       -1.378801   -1.209578   -0.698885
 ---------------------------------------------------------------------

 SCF Done:  E(RHF) =  -233.138672945     A.U. after    2 cycles

 The electronic state is 1-A.
 Alpha  occ. eigenvalues --  -11.27118 -11.25912 -11.25611 -11.24283 -11.24228
 Alpha  occ. eigenvalues --  -11.23893  -1.17007  -1.04836  -0.97212  -0.83796
 Alpha  occ. eigenvalues --   -0.81307  -0.73944  -0.67528  -0.65006  -0.58992
 Alpha  occ. eigenvalues --   -0.57489  -0.55270  -0.53656  -0.52625  -0.50341
 Alpha  occ. eigenvalues --   -0.43503  -0.41795  -0.35896
 Alpha virt. eigenvalues --    0.03395   0.03527   0.03682   0.04241   0.05965
 Alpha virt. eigenvalues --    0.06008   0.06281   0.06659   0.08382   0.08931
 Alpha virt. eigenvalues --    0.09618   0.10676   0.12748   0.13360   0.13509

 Mulliken charges:
               1
     1  C    0.242039
     2  C    0.299670
     3  C    0.149212
     4  C   -0.662994
     5  C   -0.456948
     6  C   -0.294165
     7  H   -0.109496
     8  H   -0.127686
     9  H   -0.118669
    10  H   -0.109637
    11  H    0.236922
    12  H    0.091013
    13  H    0.223619
    14  H    0.118986
    15  H    0.071638
    16  H    0.446496
 Sum of Mulliken charges =  -0.00000

 Dipole moment (field-independent basis, Debye):
    X=              2.6884    Y=             -0.0902    Z=             -0.0307  Tot=              2.6901

 Test job not archived.
 1\1\GINC-SE461\SP\RHF\Aug-CC-pVDZ\C6H10\OHZDE\09-Apr-2025\0\\#t hf aug
 -cc-pvdz iop(5/13=1,5/36=2,99/5=2) pseudo=read geom=check guess=(read,
 tcheck) scf=(maxcycle=1)\\title\\0,1\C,0,-1.08334315,0.17072582,0.9407
 0206\C,0,-1.51442409,-0.00494885,-0.50185577\C,0,-0.06283929,-0.168243
 24,-0.11525636\C,0,0.54018868,-1.56432622,-0.13013324\C,0,1.92546122,1
 .53253397,0.32121515\C,0,0.9392574,0.90467623,-0.53759487\H,0,-1.35673
 357,-0.60429802,1.65704326\H,0,-1.08361159,1.17891466,1.3576538\H,0,-1
 .80237386,0.88671996,-1.06049315\H,0,-2.08032749,-0.89948597,-0.765331

 Normal termination of Gaussian 16 at Wed Apr  9 03:08:01 2025.
