 Gaussian 16, Revision C.01,

 ----------------------------------------------------------------------
 #t hf aug-cc-pvdz symm=none int=(grid=ultrafine) guess=(read,tcheck) s
 table=(opt,rrhf)
 ----------------------------------------------------------------------
 -----
 title
 -----
 Symbolic Z-matrix:
 Charge =  0 Multiplicity = 1

 SCF Done:  E(RHF) =  -269.996706913     A.U. after   14 cycles

 1\1\GINC-SE108\Stability\RHF\Aug-CC-pVDZ\C5H10O1\OHZDE\09-Apr-2025\0\\
 #t hf aug-cc-pvdz symm=none int=(grid=ultrafine) guess=(read,tcheck) s
 table=(opt,rrhf)\\title\\0,1\C,0,-2.19989489,-0.27456714,0.20286483\C,
 0,-1.1533461,-0.61279671,-0.88074897\C,0,0.19045179,-0.04468701,-0.548
 24775\C,0,1.32777515,-0.75188514,-0.36912862\C,0,2.60638881,-0.1026412
 5,-0.01155115\O,0,2.75565609,1.09649639,0.20167427\H,0,-3.18571472,-0.
 66900943,-0.07841927\H,0,-1.91406476,-0.71066184,1.16915482\H,0,-2.290
 90579,0.81250934,0.33530924\H,0,-1.08562331,-1.70201637,-1.01693031\H,

 Normal termination of Gaussian 16 at Wed Apr  9 03:09:42 2025.
 Gaussian 16:  ES64L-G16RevC.01  3-Jul-2019

 ----------------------------------------------------------------------
 #t hf aug-cc-pvdz iop(5/13=1,5/36=2,99/5=2) pseudo=read geom=check gue
 ss=(read,tcheck) scf=(maxcycle=1)
 ----------------------------------------------------------------------
 -----
 title
 -----
 Structure from the checkpoint file:  "Grambow2020_b97d3_006649_reverse_mol2.chk"
 Charge =  0 Multiplicity = 1

                         Standard orientation:
 ---------------------------------------------------------------------
 Center     Atomic      Atomic             Coordinates (Angstroms)
 Number     Number       Type             X           Y           Z
 ---------------------------------------------------------------------
      1          6           0        2.642181    0.537718   -0.315472
      2          6           0        1.774554   -0.550381    0.353219
      3          6           0        0.323501   -0.185126    0.341789
      4          6           0       -0.667133   -0.891633   -0.245756
      5          6           0       -2.072183   -0.433566   -0.230165
      6          8           0       -2.466986    0.621594    0.256091
      7          1           0        3.705499    0.267132   -0.263661
      8          1           0        2.366136    0.660971   -1.371030
      9          1           0        2.510633    1.507315    0.184663
     10          1           0        1.929596   -1.518971   -0.144101
     11          1           0        2.104107   -0.666529    1.400126
     12          1           0        0.048072    0.750461    0.837051
     13          1           0       -0.602573    3.340082   -0.412099
     14          1           0       -0.453357   -1.835699   -0.754000
     15          1           0       -1.084769    2.798367   -0.234825
     16          1           0       -2.792980   -1.137954   -0.712534
 ---------------------------------------------------------------------

 SCF Done:  E(RHF) =  -270.283987489     A.U. after    2 cycles

 The electronic state is 1-A.
 Alpha  occ. eigenvalues --  -20.53754 -11.34384 -11.27797 -11.25724 -11.24823
 Alpha  occ. eigenvalues --  -11.24435  -1.45668  -1.10816  -1.02519  -0.91167
 Alpha  occ. eigenvalues --   -0.83623  -0.75483  -0.69134  -0.65816  -0.62028
 Alpha  occ. eigenvalues --   -0.61208  -0.57661  -0.55628  -0.54928  -0.52858
 Alpha  occ. eigenvalues --   -0.51823  -0.50801  -0.41848  -0.37936
 Alpha virt. eigenvalues --    0.03175   0.03331   0.04082   0.04672   0.05505
 Alpha virt. eigenvalues --    0.06195   0.06916   0.07531   0.07985   0.09202
 Alpha virt. eigenvalues --    0.10127   0.11361   0.13087   0.13525   0.14124

 Mulliken charges:
               1
     1  C   -0.437944
     2  C   -0.798805
     3  C    0.731283
     4  C    0.358779
     5  C    0.779324
     6  O   -1.232386
     7  H    0.122008
     8  H    0.181673
     9  H    0.184427
    10  H    0.132636
    11  H    0.255604
    12  H   -0.163635
    13  H    0.026366
    14  H   -0.215970
    15  H   -0.024897
    16  H    0.101538
 Sum of Mulliken charges =  -0.00000

 Dipole moment (field-independent basis, Debye):
    X=              2.7943    Y=             -2.1474    Z=             -0.6418  Tot=              3.5821

 Test job not archived.
 1\1\GINC-SE108\SP\RHF\Aug-CC-pVDZ\C5H10O1\OHZDE\09-Apr-2025\0\\#t hf a
 ug-cc-pvdz iop(5/13=1,5/36=2,99/5=2) pseudo=read geom=check guess=(rea
 d,tcheck) scf=(maxcycle=1)\\title\\0,1\C,0,-2.19989489,-0.27456714,0.2
 0286483\C,0,-1.1533461,-0.61279671,-0.88074897\C,0,0.19045179,-0.04468
 701,-0.54824775\C,0,1.32777515,-0.75188514,-0.36912862\C,0,2.60638881,
 -0.10264125,-0.01155115\O,0,2.75565609,1.09649639,0.20167427\H,0,-3.18
 571472,-0.66900943,-0.07841927\H,0,-1.91406476,-0.71066184,1.16915482\
 H,0,-2.29090579,0.81250934,0.33530924\H,0,-1.08562331,-1.70201637,-1.0

 Normal termination of Gaussian 16 at Wed Apr  9 03:09:46 2025.
