 Gaussian 16, Revision C.01,

 ----------------------------------------------------------------------
 #t hf aug-cc-pvdz symm=none int=(grid=ultrafine) guess=(read,tcheck) s
 table=(opt,rrhf)
 ----------------------------------------------------------------------
 -----
 title
 -----
 Symbolic Z-matrix:
 Charge =  0 Multiplicity = 1

 SCF Done:  E(RHF) =  -343.508475285     A.U. after   16 cycles
 Normal termination of Gaussian 16 at Wed Apr  9 18:31:33 2025.
 Gaussian 16:  ES64L-G16RevC.01  3-Jul-2019

 ----------------------------------------------------------------------
 #t hf aug-cc-pvdz iop(5/13=1,5/36=2,99/5=2) pseudo=read geom=check gue
 ss=(read,tcheck) scf=(maxcycle=1)
 ----------------------------------------------------------------------
 -----
 title
 -----
 Structure from the checkpoint file:  "Grambow2020_wb97xd3_007674_forward_mol1.chk"
 Charge =  0 Multiplicity = 1

                         Standard orientation:
 ---------------------------------------------------------------------
 Center     Atomic      Atomic             Coordinates (Angstroms)
 Number     Number       Type             X           Y           Z
 ---------------------------------------------------------------------
      1          6           0       -1.486693   -1.338329   -0.163293
      2          6           0       -0.412029   -0.668366    0.603183
      3          6           0        1.764226   -0.498848    0.463111
      4          8           0        0.877783   -0.557825   -0.851341
      5          6           0        1.125481    0.682160   -0.139578
      6          6           0       -0.195558    0.859353    0.537781
      7          8           0       -1.186271    1.550608   -0.174675
      8          1           0       -1.237385   -2.388267   -0.315455
      9          1           0       -1.704973   -0.868474   -1.118044
     10          1           0       -2.383758   -1.301242    0.466975
     11          1           0       -0.189403   -1.147328    1.543920
     12          1           0        2.799232   -0.613480    0.125658
     13          1           0        1.618732    1.458070   -0.720711
     14          1           0       -0.149078    1.304786    1.532894
     15          1           0       -1.058023    1.397853   -1.114339
 ---------------------------------------------------------------------

 SCF Done:  E(RHF) =  -343.860372495     A.U. after    2 cycles

 The electronic state is 1-A.
 Alpha  occ. eigenvalues --  -20.57261 -20.55361 -11.37294 -11.31821 -11.28182
 Alpha  occ. eigenvalues --  -11.26267 -11.21924  -1.48749  -1.45365  -1.09813
 Alpha  occ. eigenvalues --   -1.02070  -0.89603  -0.84841  -0.79338  -0.73084
 Alpha  occ. eigenvalues --   -0.68344  -0.64226  -0.63435  -0.61097  -0.58446
 Alpha  occ. eigenvalues --   -0.56186  -0.54241  -0.51351  -0.47345  -0.44956
 Alpha  occ. eigenvalues --   -0.42660  -0.30191
 Alpha virt. eigenvalues --    0.03158   0.03501   0.04017   0.04714   0.05764
 Alpha virt. eigenvalues --    0.06030   0.06425   0.07977   0.08223   0.09436
 Alpha virt. eigenvalues --    0.12461   0.13279   0.13405   0.14050   0.14250

 Mulliken charges:
               1
     1  C   -0.403956
     2  C    0.219485
     3  C   -0.234069
     4  O   -1.260038
     5  C    0.925618
     6  C    1.321739
     7  O   -1.406175
     8  H    0.249247
     9  H    0.171613
    10  H    0.293616
    11  H   -0.088864
    12  H   -0.098299
    13  H   -0.088809
    14  H    0.113421
    15  H    0.285473
 Sum of Mulliken charges =  -0.00000

 Dipole moment (field-independent basis, Debye):
    X=             -2.6628    Y=              0.1196    Z=             -0.0612  Tot=              2.6662

 Test job not archived.
 1\1\GINC-SE112\SP\RHF\Aug-CC-pVDZ\C5H8O2\OHZDE\09-Apr-2025\0\\#t hf au
 g-cc-pvdz iop(5/13=1,5/36=2,99/5=2) pseudo=read geom=check guess=(read
 ,tcheck) scf=(maxcycle=1)\\title\\0,1\C,0,1.63198107,-0.81765776,0.057
 37819\C,0,0.53952145,0.01403472,0.61060287\C,0,-0.41395211,1.91682385,
 0.10589864\O,0,0.09721383,0.94654649,-1.04053648\C,0,-1.20815469,0.797
 1447,-0.42473171\C,0,-0.94496298,-0.38251867,0.45531419\O,0,-1.1454461
 4,-1.65134457,-0.10755975\H,0,2.52293519,-0.2091179,-0.0961088\H,0,1.3
 7152454,-1.33014709,-0.86429209\H,0,1.87113616,-1.56307899,0.8258127\H

 Normal termination of Gaussian 16 at Wed Apr  9 18:31:38 2025.
