 Gaussian 16, Revision C.01,

 ----------------------------------------------------------------------
 #t hf aug-cc-pvdz symm=none int=(grid=ultrafine) guess=(read,tcheck) s
 table=(opt,rrhf)
 ----------------------------------------------------------------------
 -----
 title
 -----
 Symbolic Z-matrix:
 Charge =  0 Multiplicity = 1

 SCF Done:  E(RHF) =  -245.666720219     A.U. after   17 cycles
 Normal termination of Gaussian 16 at Wed Apr  9 16:18:43 2025.
 Gaussian 16:  ES64L-G16RevC.01  3-Jul-2019

 ----------------------------------------------------------------------
 #t hf aug-cc-pvdz iop(5/13=1,5/36=2,99/5=2) pseudo=read geom=check gue
 ss=(read,tcheck) scf=(maxcycle=1)
 ----------------------------------------------------------------------
 -----
 title
 -----
 Structure from the checkpoint file:  "Grambow2020_b97d3_007204_reverse_mol2.chk"
 Charge =  0 Multiplicity = 1

                         Standard orientation:
 ---------------------------------------------------------------------
 Center     Atomic      Atomic             Coordinates (Angstroms)
 Number     Number       Type             X           Y           Z
 ---------------------------------------------------------------------
      1          8           0       -1.384822   -0.946301   -0.221217
      2          6           0       -2.026650    0.018934    0.329019
      3          6           0       -1.412984    1.047631   -0.327498
      4          6           0        2.772114   -0.101340    0.022493
      5          7           0        1.539693    0.212782    0.118222
      6          1           0       -2.910901   -0.079870    0.974363
      7          1           0       -0.399107    1.393557   -0.091243
      8          1           0        3.527407    0.679629    0.181395
      9          1           0        3.161802   -1.107023   -0.209306
     10          1           0        0.926641   -0.596706   -0.057111
 ---------------------------------------------------------------------

 SCF Done:  E(RHF) =  -245.911552433     A.U. after    2 cycles

 The electronic state is 1-A.
 Alpha  occ. eigenvalues --  -20.55036 -15.50685 -11.36767 -11.30652 -11.29857
 Alpha  occ. eigenvalues --   -1.45935  -1.21033  -1.00735  -0.85795  -0.81349
 Alpha  occ. eigenvalues --   -0.71053  -0.68235  -0.62990  -0.62082  -0.55638
 Alpha  occ. eigenvalues --   -0.48063  -0.46758  -0.44040  -0.37075
 Alpha virt. eigenvalues --    0.03146   0.03909   0.04339   0.05222   0.06817
 Alpha virt. eigenvalues --    0.07716   0.08248   0.09296   0.10465   0.11644
 Alpha virt. eigenvalues --    0.13150   0.13972   0.14129   0.15313   0.16160

 Mulliken charges:
               1
     1  O   -1.057122
     2  C    1.140352
     3  C   -0.333593
     4  C   -0.645909
     5  N    0.528185
     6  H    0.140463
     7  H    0.129475
     8  H   -0.006096
     9  H    0.056807
    10  H    0.047437
 Sum of Mulliken charges =  -0.00000

 Dipole moment (field-independent basis, Debye):
    X=              1.0538    Y=              0.1992    Z=              2.0329  Tot=              2.2985

 Test job not archived.
 1\1\GINC-SE131\SP\RHF\Aug-CC-pVDZ\C3H5N1O1\OHZDE\09-Apr-2025\0\\#t hf
 aug-cc-pvdz iop(5/13=1,5/36=2,99/5=2) pseudo=read geom=check guess=(re
 ad,tcheck) scf=(maxcycle=1)\\title\\0,1\O,0,1.60037373,-0.036243,1.274
 44889\C,0,2.37465568,-0.30159898,0.28629104\C,0,1.88978327,0.63197189,
 -0.58500844\C,0,-2.40291856,0.05037385,-0.14668387\N,0,-1.1381737,0.02
 420278,-0.30927398\H,0,3.25038218,-0.96529485,0.31352817\H,0,0.9352779
 3,0.52337072,-1.114681\H,0,-3.04514818,0.13462734,-1.0332909\H,0,-2.92
 651724,-0.00585782,0.82268036\H,0,-0.64099711,-0.04967193,0.59028272\\

 Normal termination of Gaussian 16 at Wed Apr  9 16:18:45 2025.
