 Gaussian 16, Revision C.01,

 ----------------------------------------------------------------------
 #t hf aug-cc-pvdz symm=none int=(grid=ultrafine) guess=(read,tcheck) s
 table=(opt,rrhf)
 ----------------------------------------------------------------------
 -----
 title
 -----
 Symbolic Z-matrix:
 Charge =  0 Multiplicity = 1

 SCF Done:  E(RHF) =  -308.926886169     A.U. after   16 cycles

 1\1\GINC-SE334\Stability\RHF\Aug-CC-pVDZ\C6H12O1\OHZDE\09-Apr-2025\0\\
 #t hf aug-cc-pvdz symm=none int=(grid=ultrafine) guess=(read,tcheck) s
 table=(opt,rrhf)\\title\\0,1\C,0,1.64923097,1.26654477,-0.30222042\C,0
 ,0.62016724,0.17750463,-0.0963015\C,0,1.19025574,-1.20895926,0.1037961
 6\C,0,-0.61408741,0.34331818,-0.71885719\C,0,-1.707808,-0.67906804,-0.
 75788028\C,0,-2.01676214,0.02754979,0.50551599\O,0,-1.62776883,-0.3567
 9066,1.64675964\H,0,1.17945734,2.2471988,-0.37918143\H,0,2.37146728,1.
 29236021,0.51411937\H,0,2.20165261,1.07947897,-1.22744004\H,0,0.372015

 Normal termination of Gaussian 16 at Wed Apr  9 03:53:06 2025.
 Gaussian 16:  ES64L-G16RevC.01  3-Jul-2019

 ----------------------------------------------------------------------
 #t hf aug-cc-pvdz iop(5/13=1,5/36=2,99/5=2) pseudo=read geom=check gue
 ss=(read,tcheck) scf=(maxcycle=1)
 ----------------------------------------------------------------------
 -----
 title
 -----
 Structure from the checkpoint file:  "Grambow2020_wb97xd3_008288_reverse_mol1.chk"
 Charge =  0 Multiplicity = 1

                         Standard orientation:
 ---------------------------------------------------------------------
 Center     Atomic      Atomic             Coordinates (Angstroms)
 Number     Number       Type             X           Y           Z
 ---------------------------------------------------------------------
      1          6           0        2.195962   -0.668320   -0.593885
      2          6           0        0.948897   -0.037268   -0.015970
      3          6           0        1.180787    1.242550    0.755790
      4          6           0       -0.088236   -0.893402    0.344370
      5          6           0       -1.338294   -0.484653    1.060821
      6          6           0       -1.729319   -0.268451   -0.350309
      7          8           0       -1.645848    0.844367   -0.947083
      8          1           0        1.955889   -1.550502   -1.187529
      9          1           0        2.743089    0.033672   -1.223616
     10          1           0        2.862416   -0.974310    0.217536
     11          1           0        0.472439    0.702172   -1.302365
     12          1           0        1.898856    1.882605    0.242650
     13          1           0        1.583210    1.002817    1.744550
     14          1           0        0.259872    1.807706    0.888586
     15          1           0       -0.015134   -1.931394    0.044986
     16          1           0       -1.847041   -1.298947    1.567187
     17          1           0       -1.282099    0.414490    1.664840
     18          1           0       -2.110210   -1.140483   -0.893446
     19          1           0       -0.373286    0.954508   -1.391619
 ---------------------------------------------------------------------

 SCF Done:  E(RHF) =  -309.258697879     A.U. after    2 cycles

 The electronic state is 1-A.
 Alpha  occ. eigenvalues --  -20.52459 -11.32203 -11.29065 -11.24739 -11.24221
 Alpha  occ. eigenvalues --  -11.23632 -11.23315  -1.44628  -1.13782  -1.06070
 Alpha  occ. eigenvalues --   -0.95683  -0.89634  -0.80578  -0.73778  -0.70089
 Alpha  occ. eigenvalues --   -0.68768  -0.63393  -0.62011  -0.59907  -0.57173
 Alpha  occ. eigenvalues --   -0.56072  -0.55410  -0.53787  -0.52450  -0.50156
 Alpha  occ. eigenvalues --   -0.41612  -0.39990  -0.32755
 Alpha virt. eigenvalues --    0.03206   0.03385   0.03481   0.04557   0.05656
 Alpha virt. eigenvalues --    0.05880   0.06169   0.07109   0.07872   0.08994
 Alpha virt. eigenvalues --    0.09765   0.10716   0.11702   0.12561   0.13482

 Mulliken charges:
               1
     1  C   -0.146957
     2  C   -1.314125
     3  C   -0.293907
     4  C    0.455231
     5  C    0.097846
     6  C    1.267633
     7  O   -1.491855
     8  H    0.143481
     9  H    0.145464
    10  H    0.243512
    11  H    0.541386
    12  H    0.159287
    13  H    0.215346
    14  H    0.169263
    15  H   -0.313449
    16  H   -0.006636
    17  H   -0.032925
    18  H    0.030753
    19  H    0.130651
 Sum of Mulliken charges =  -0.00000

 Dipole moment (field-independent basis, Debye):
    X=              1.6437    Y=             -1.8170    Z=              1.5111  Tot=              2.8786

 Test job not archived.
 1\1\GINC-SE334\SP\RHF\Aug-CC-pVDZ\C6H12O1\OHZDE\09-Apr-2025\0\\#t hf a
 ug-cc-pvdz iop(5/13=1,5/36=2,99/5=2) pseudo=read geom=check guess=(rea
 d,tcheck) scf=(maxcycle=1)\\title\\0,1\C,0,1.64923097,1.26654477,-0.30
 222042\C,0,0.62016724,0.17750463,-0.0963015\C,0,1.19025574,-1.20895926
 ,0.10379616\C,0,-0.61408741,0.34331818,-0.71885719\C,0,-1.707808,-0.67
 906804,-0.75788028\C,0,-2.01676214,0.02754979,0.50551599\O,0,-1.627768
 83,-0.35679066,1.64675964\H,0,1.17945734,2.2471988,-0.37918143\H,0,2.3
 7146728,1.29236021,0.51411937\H,0,2.20165261,1.07947897,-1.22744004\H,

 Normal termination of Gaussian 16 at Wed Apr  9 03:53:13 2025.
