 Gaussian 16, Revision C.01,

 ----------------------------------------------------------------------
 #t hf aug-cc-pvdz symm=none int=(grid=ultrafine) guess=(read,tcheck) s
 table=(opt,rrhf)
 ----------------------------------------------------------------------
 -----
 title
 -----
 Symbolic Z-matrix:
 Charge =  0 Multiplicity = 1

 SCF Done:  E(RHF) =  -336.347996391     A.U. after   16 cycles
 Normal termination of Gaussian 16 at Wed Apr  9 18:38:11 2025.
 Gaussian 16:  ES64L-G16RevC.01  3-Jul-2019

 ----------------------------------------------------------------------
 #t hf aug-cc-pvdz iop(5/13=1,5/36=2,99/5=2) pseudo=read geom=check gue
 ss=(read,tcheck) scf=(maxcycle=1)
 ----------------------------------------------------------------------
 -----
 title
 -----
 Structure from the checkpoint file:  "Grambow2020_wb97xd3_007924_reverse_mol2.chk"
 Charge =  0 Multiplicity = 1

                         Standard orientation:
 ---------------------------------------------------------------------
 Center     Atomic      Atomic             Coordinates (Angstroms)
 Number     Number       Type             X           Y           Z
 ---------------------------------------------------------------------
      1          7           0        3.012216   -0.397872   -0.005107
      2          6           0        1.741449   -0.072337   -0.000909
      3          8           0       -1.263788    1.692372    0.000414
      4          6           0        0.573272    0.238787   -0.000587
      5          6           0       -0.804225    0.578490   -0.000289
      6          6           0       -1.704473   -0.600780    0.000346
      7          7           0       -2.403994   -1.509831    0.000497
      8          1           0        3.294231   -1.360979    0.014098
      9          1           0        3.722387    0.310968    0.023493
 ---------------------------------------------------------------------

 SCF Done:  E(RHF) =  -336.675692573     A.U. after    2 cycles

 The electronic state is 1-A.
 Alpha  occ. eigenvalues --  -20.57601 -15.58694 -15.54251 -11.41796 -11.33975
 Alpha  occ. eigenvalues --  -11.29863 -11.26889  -1.51460  -1.29138  -1.25837
 Alpha  occ. eigenvalues --   -1.08962  -0.98317  -0.86012  -0.80865  -0.80509
 Alpha  occ. eigenvalues --   -0.69499  -0.63421  -0.62656  -0.59341  -0.53636
 Alpha  occ. eigenvalues --   -0.51470  -0.48468  -0.45263  -0.40054
 Alpha virt. eigenvalues --    0.00901   0.03677   0.04260   0.07211   0.08229
 Alpha virt. eigenvalues --    0.08872   0.09323   0.11237   0.11351   0.12595
 Alpha virt. eigenvalues --    0.13256   0.13647   0.13751   0.15132   0.17171

 Mulliken charges:
               1
     1  N    1.088702
     2  C   -2.516526
     3  O   -1.286175
     4  C    1.354715
     5  C    1.787794
     6  C   -1.456056
     7  N    0.790428
     8  H    0.115291
     9  H    0.121827
 Sum of Mulliken charges =  -0.00000

 Dipole moment (field-independent basis, Debye):
    X=              7.1680    Y=             -0.2387    Z=              0.0763  Tot=              7.1723

 Test job not archived.
 1\1\GINC-SE224\SP\RHF\Aug-CC-pVDZ\C4H2N2O1\OHZDE\09-Apr-2025\0\\#t hf
 aug-cc-pvdz iop(5/13=1,5/36=2,99/5=2) pseudo=read geom=check guess=(re
 ad,tcheck) scf=(maxcycle=1)\\title\\0,1\N,0,-2.1774066,0.67961167,0.04
 8355\C,0,-1.03620395,0.21150482,0.49486716\O,0,1.42496711,-1.35719613,
 2.39945669\C,0,0.00948849,-0.22724624,0.91374696\C,0,1.24899272,-0.732
 27715,1.38434957\C,0,2.39195492,-0.42200677,0.49076504\N,0,3.27829036,
 -0.18453177,-0.19750828\H,0,-2.21588081,1.20751392,-0.80447284\H,0,-3.
 02183724,0.56079064,0.5779147\\Version=ES64L-G16RevC.01\State=1-A\HF=-

 Normal termination of Gaussian 16 at Wed Apr  9 18:38:14 2025.
