 Gaussian 16, Revision C.01,

 ----------------------------------------------------------------------
 #t hf aug-cc-pvdz symm=none int=(grid=ultrafine) guess=(read,tcheck) s
 table=(opt,rrhf)
 ----------------------------------------------------------------------
 -----
 title
 -----
 Symbolic Z-matrix:
 Charge =  0 Multiplicity = 1

 SCF Done:  E(RHF) =  -338.714055835     A.U. after   14 cycles
 Normal termination of Gaussian 16 at Wed Apr  9 18:41:30 2025.
 Gaussian 16:  ES64L-G16RevC.01  3-Jul-2019

 ----------------------------------------------------------------------
 #t hf aug-cc-pvdz iop(5/13=1,5/36=2,99/5=2) pseudo=read geom=check gue
 ss=(read,tcheck) scf=(maxcycle=1)
 ----------------------------------------------------------------------
 -----
 title
 -----
 Structure from the checkpoint file:  "Grambow2020_wb97xd3_007973_reverse_mol2.chk"
 Charge =  0 Multiplicity = 1

                         Standard orientation:
 ---------------------------------------------------------------------
 Center     Atomic      Atomic             Coordinates (Angstroms)
 Number     Number       Type             X           Y           Z
 ---------------------------------------------------------------------
      1          7           0       -0.907509    2.271097    0.034974
      2          6           0       -0.626479    1.158663   -0.012049
      3          8           0        2.133190    0.094102    0.383592
      4          6           0        1.213138   -0.437608   -0.535484
      5          6           0       -0.225319   -0.230992   -0.101299
      6          6           0       -0.898403   -1.188181    0.809658
      7          7           0       -1.189329   -1.198321   -0.615504
      8          1           0        2.139961    1.051152    0.311867
      9          1           0        1.351707   -0.022333   -1.540221
     10          1           0        1.390374   -1.511818   -0.589390
     11          1           0       -1.642549   -0.797488    1.493181
     12          1           0       -0.324960   -2.033047    1.171431
     13          1           0       -2.079806   -0.760003   -0.816852
 ---------------------------------------------------------------------

 SCF Done:  E(RHF) =  -339.059842477     A.U. after    2 cycles

 The electronic state is 1-A.
 Alpha  occ. eigenvalues --  -20.56930 -15.54262 -15.52971 -11.32687 -11.31402
 Alpha  occ. eigenvalues --  -11.30141 -11.29414  -1.47579  -1.32117  -1.24953
 Alpha  occ. eigenvalues --   -1.02819  -0.93467  -0.90520  -0.79281  -0.72808
 Alpha  occ. eigenvalues --   -0.69240  -0.64539  -0.63677  -0.61161  -0.58030
 Alpha  occ. eigenvalues --   -0.56589  -0.53423  -0.52311  -0.51291  -0.47403
 Alpha  occ. eigenvalues --   -0.44455
 Alpha virt. eigenvalues --    0.03266   0.04293   0.04555   0.04855   0.05599
 Alpha virt. eigenvalues --    0.06641   0.08140   0.09384   0.10893   0.12519
 Alpha virt. eigenvalues --    0.13305   0.13741   0.13953   0.14192   0.14992

 Mulliken charges:
               1
     1  N    1.130426
     2  C   -2.414578
     3  O   -1.034625
     4  C    0.764802
     5  C   -0.393695
     6  C    0.687510
     7  N    0.496026
     8  H    0.298811
     9  H    0.270375
    10  H    0.095872
    11  H   -0.041986
    12  H   -0.066467
    13  H    0.207530
 Sum of Mulliken charges =  -0.00000

 Dipole moment (field-independent basis, Debye):
    X=             -0.2181    Y=             -2.3828    Z=              0.1553  Tot=              2.3978

 Test job not archived.
 1\1\GINC-SE224\SP\RHF\Aug-CC-pVDZ\C4H6N2O1\OHZDE\09-Apr-2025\0\\#t hf
 aug-cc-pvdz iop(5/13=1,5/36=2,99/5=2) pseudo=read geom=check guess=(re
 ad,tcheck) scf=(maxcycle=1)\\title\\0,1\N,0,1.5183725,-2.0626339,-0.98
 368524\C,0,0.78830205,-1.26589116,-0.59523011\O,0,1.38814587,1.6543012
 8,-0.46011449\C,0,0.632912,0.96470235,0.50320663\C,0,-0.08963523,-0.23
 590549,-0.07716541\C,0,-1.41960717,-0.09677167,-0.71819006\N,0,-1.3020
 2999,-0.64730577,0.62304619\H,0,2.17735048,1.14963811,-0.66893773\H,0,
 1.24752981,0.64263675,1.35153951\H,0,-0.12279552,1.65431954,0.87947596

 Normal termination of Gaussian 16 at Wed Apr  9 18:41:34 2025.
