 Gaussian 16, Revision C.01,

 ----------------------------------------------------------------------
 #t hf aug-cc-pvdz symm=none int=(grid=ultrafine) guess=(read,tcheck) s
 table=(opt,rrhf)
 ----------------------------------------------------------------------
 -----
 title
 -----
 Symbolic Z-matrix:
 Charge =  0 Multiplicity = 1

 SCF Done:  E(RHF) =  -308.840230847     A.U. after   15 cycles

 1\1\GINC-SE219\Stability\RHF\Aug-CC-pVDZ\C6H12O1\OHZDE\09-Apr-2025\0\\
 #t hf aug-cc-pvdz symm=none int=(grid=ultrafine) guess=(read,tcheck) s
 table=(opt,rrhf)\\title\\0,1\C,0,1.71563351,0.03273143,-1.45691068\C,0
 ,1.07351145,0.16949343,-0.09746067\O,0,0.90128308,1.5498061,0.29512199
 \C,0,-0.52221775,1.47509827,0.13880617\C,0,-0.44428593,-0.02017266,-0.
 08305406\C,0,-0.63045395,-0.62908077,1.92630519\C,0,-1.27244576,-0.831
 58492,-0.90429661\H,0,2.72168313,0.45300116,-1.4250628\H,0,1.78538121,
 -1.01938493,-1.74029365\H,0,1.1395419,0.55698073,-2.21983303\H,0,1.628

 Normal termination of Gaussian 16 at Wed Apr  9 17:21:56 2025.
 Gaussian 16:  ES64L-G16RevC.01  3-Jul-2019

 ----------------------------------------------------------------------
 #t hf aug-cc-pvdz iop(5/13=1,5/36=2,99/5=2) pseudo=read geom=check gue
 ss=(read,tcheck) scf=(maxcycle=1)
 ----------------------------------------------------------------------
 -----
 title
 -----
 Structure from the checkpoint file:  "Grambow2020_wb97xd3_006578_reverse_mol1.chk"
 Charge =  0 Multiplicity = 1

                         Standard orientation:
 ---------------------------------------------------------------------
 Center     Atomic      Atomic             Coordinates (Angstroms)
 Number     Number       Type             X           Y           Z
 ---------------------------------------------------------------------
      1          6           0        2.051128    0.535663   -0.487306
      2          6           0        0.746920   -0.218635   -0.583240
      3          8           0        0.720624   -1.385940    0.268671
      4          6           0       -0.224570   -0.781815    1.161985
      5          6           0       -0.405498    0.388259    0.218946
      6          6           0       -1.988987   -0.397287   -0.929285
      7          6           0       -0.680132    1.744163    0.542639
      8          1           0        2.863193   -0.100516   -0.841714
      9          1           0        2.016570    1.434918   -1.105581
     10          1           0        2.260264    0.832843    0.540661
     11          1           0        0.519003   -0.481119   -1.616943
     12          1           0        0.242924   -0.469176    2.102016
     13          1           0       -1.086509   -1.415934    1.365229
     14          1           0       -1.636615   -1.419930   -1.034453
     15          1           0       -2.051559    0.096796   -1.901628
     16          1           0       -2.949997   -0.370949   -0.407721
     17          1           0       -1.540891    0.840058   -0.207712
     18          1           0       -0.316739    2.531807   -0.100859
     19          1           0       -1.077800    1.986635    1.516898
 ---------------------------------------------------------------------

 SCF Done:  E(RHF) =  -309.173203246     A.U. after    2 cycles

 The electronic state is 1-A.
 Alpha  occ. eigenvalues --  -20.55176 -11.32557 -11.30786 -11.30427 -11.23543
 Alpha  occ. eigenvalues --  -11.22249 -11.20089  -1.48346  -1.11490  -1.02957
 Alpha  occ. eigenvalues --   -0.93842  -0.92524  -0.88264  -0.74011  -0.70577
 Alpha  occ. eigenvalues --   -0.67553  -0.65816  -0.60027  -0.58383  -0.57685
 Alpha  occ. eigenvalues --   -0.56079  -0.55551  -0.53877  -0.51785  -0.49650
 Alpha  occ. eigenvalues --   -0.47720  -0.42644  -0.26639
 Alpha virt. eigenvalues --    0.03415   0.03722   0.04018   0.04103   0.05826
 Alpha virt. eigenvalues --    0.05939   0.05990   0.06585   0.07300   0.09099
 Alpha virt. eigenvalues --    0.09301   0.10206   0.11576   0.12721   0.13221

 Mulliken charges:
               1
     1  C   -0.311212
     2  C    0.996025
     3  O   -1.442685
     4  C    0.827220
     5  C   -0.965890
     6  C   -0.654513
     7  C   -0.120685
     8  H    0.200113
     9  H    0.241963
    10  H    0.243671
    11  H    0.057568
    12  H    0.104384
    13  H    0.127847
    14  H    0.013024
    15  H    0.073641
    16  H    0.064554
    17  H    0.854907
    18  H   -0.136069
    19  H   -0.173864
 Sum of Mulliken charges =  -0.00000

 Dipole moment (field-independent basis, Debye):
    X=              0.1067    Y=              0.3644    Z=             -0.0864  Tot=              0.3894

 Test job not archived.
 1\1\GINC-SE219\SP\RHF\Aug-CC-pVDZ\C6H12O1\OHZDE\09-Apr-2025\0\\#t hf a
 ug-cc-pvdz iop(5/13=1,5/36=2,99/5=2) pseudo=read geom=check guess=(rea
 d,tcheck) scf=(maxcycle=1)\\title\\0,1\C,0,1.71563351,0.03273143,-1.45
 691068\C,0,1.07351145,0.16949343,-0.09746067\O,0,0.90128308,1.5498061,
 0.29512199\C,0,-0.52221775,1.47509827,0.13880617\C,0,-0.44428593,-0.02
 017266,-0.08305406\C,0,-0.63045395,-0.62908077,1.92630519\C,0,-1.27244
 576,-0.83158492,-0.90429661\H,0,2.72168313,0.45300116,-1.4250628\H,0,1
 .78538121,-1.01938493,-1.74029365\H,0,1.1395419,0.55698073,-2.21983303

 Normal termination of Gaussian 16 at Wed Apr  9 17:22:04 2025.
