 Gaussian 16, Revision C.01,

 ----------------------------------------------------------------------
 #t hf aug-cc-pvdz symm=none int=(grid=ultrafine) guess=(read,tcheck) s
 table=(opt,rrhf)
 ----------------------------------------------------------------------
 -----
 title
 -----
 Symbolic Z-matrix:
 Charge =  0 Multiplicity = 1

 SCF Done:  E(RHF) =  -306.409126655     A.U. after   16 cycles
 Normal termination of Gaussian 16 at Wed Apr  9 19:16:08 2025.
 Gaussian 16:  ES64L-G16RevC.01  3-Jul-2019

 ----------------------------------------------------------------------
 #t hf aug-cc-pvdz iop(5/13=1,5/36=2,99/5=2) pseudo=read geom=check gue
 ss=(read,tcheck) scf=(maxcycle=1)
 ----------------------------------------------------------------------
 -----
 title
 -----
 Structure from the checkpoint file:  "Grambow2020_wb97xd3_009021_forward_mol1.chk"
 Charge =  0 Multiplicity = 1

                         Standard orientation:
 ---------------------------------------------------------------------
 Center     Atomic      Atomic             Coordinates (Angstroms)
 Number     Number       Type             X           Y           Z
 ---------------------------------------------------------------------
      1          6           0       -2.091469   -0.111549   -0.085948
      2          6           0       -0.716349   -0.193623   -0.019200
      3          8           0        0.109198   -1.234556   -0.496904
      4          6           0        1.228705   -0.633427    0.223679
      5          6           0        1.472056    0.678713   -0.545464
      6          6           0        0.116126    1.107041    0.018554
      7          6           0        0.285311    0.167146    1.150233
      8          1           0       -2.616517    0.533098    0.599109
      9          1           0       -2.002613    1.669603   -0.871258
     10          1           0       -2.660455   -0.897431   -0.568206
     11          1           0        1.998266   -1.362895    0.466058
     12          1           0        2.269150    1.265655   -0.090928
     13          1           0        1.599587    0.593089   -1.625118
     14          1           0       -1.207810    1.887926   -0.569568
     15          1           0       -0.019473    0.101597    2.184020
 ---------------------------------------------------------------------

 SCF Done:  E(RHF) =  -306.726912507     A.U. after    2 cycles

 The electronic state is 1-A.
 Alpha  occ. eigenvalues --  -20.55886 -11.31656 -11.31043 -11.30721 -11.28399
 Alpha  occ. eigenvalues --  -11.24529 -11.23954  -1.50039  -1.18926  -1.06561
 Alpha  occ. eigenvalues --   -0.94657  -0.88689  -0.76968  -0.74450  -0.72642
 Alpha  occ. eigenvalues --   -0.66774  -0.63288  -0.60981  -0.59532  -0.57117
 Alpha  occ. eigenvalues --   -0.53787  -0.51307  -0.46421  -0.42262  -0.36254
 Alpha  occ. eigenvalues --   -0.30974
 Alpha virt. eigenvalues --    0.02065   0.03375   0.03945   0.04101   0.04822
 Alpha virt. eigenvalues --    0.05807   0.05987   0.07451   0.08419   0.10394
 Alpha virt. eigenvalues --    0.11234   0.11824   0.12453   0.12933   0.13831

 Mulliken charges:
               1
     1  C   -0.018692
     2  C    1.296264
     3  O   -1.698575
     4  C    0.830640
     5  C   -0.178242
     6  C   -0.315738
     7  C    0.061348
     8  H   -0.019814
     9  H   -0.216405
    10  H    0.002464
    11  H   -0.043387
    12  H    0.110656
    13  H    0.015447
    14  H    0.427021
    15  H   -0.252986
 Sum of Mulliken charges =  -0.00000

 Dipole moment (field-independent basis, Debye):
    X=              0.2892    Y=             -1.2894    Z=              2.1388  Tot=              2.5141

 Test job not archived.
 1\1\GINC-SE014\SP\RHF\Aug-CC-pVDZ\C6H8O1\OHZDE\09-Apr-2025\0\\#t hf au
 g-cc-pvdz iop(5/13=1,5/36=2,99/5=2) pseudo=read geom=check guess=(read
 ,tcheck) scf=(maxcycle=1)\\title\\0,1\C,0,1.93197414,0.29243619,-0.290
 03965\C,0,0.55745567,0.38174476,-0.22026133\O,0,-0.30653997,1.07748803
 ,-1.09360213\C,0,-1.3910382,0.86377164,-0.13857382\C,0,-1.62125012,-0.
 65756719,-0.20959926\C,0,-0.2404838,-0.76422936,0.4401965\C,0,-0.40352
 543,0.5891744,1.01850318\H,0,2.49109518,0.04080351,0.59574442\H,0,1.86
 762122,-1.65111863,-0.16529352\H,0,2.4679254,0.77412468,-1.09915075\H,

 Normal termination of Gaussian 16 at Wed Apr  9 19:16:13 2025.
