 Gaussian 16, Revision C.01,

 ----------------------------------------------------------------------
 #t hf aug-cc-pvdz symm=none int=(grid=ultrafine) guess=(read,tcheck) s
 table=(opt,rrhf)
 ----------------------------------------------------------------------
 -----
 title
 -----
 Symbolic Z-matrix:
 Charge =  0 Multiplicity = 1

 SCF Done:  E(RHF) =  -310.200479989     A.U. after   12 cycles

 1\1\GINC-SE131\Stability\RHF\Aug-CC-pVDZ\C6H14O1\OHZDE\09-Apr-2025\0\\
 #t hf aug-cc-pvdz symm=none int=(grid=ultrafine) guess=(read,tcheck) s
 table=(opt,rrhf)\\title\\0,1\C,0,-2.06493536,1.08697731,-0.52309407\C,
 0,-1.74292815,1.71795083,0.82420697\C,0,0.59106915,-1.8948269,-1.11272
 63\C,0,0.41006582,-2.14554671,0.36369451\C,0,1.45580271,-1.20265586,-0
 .10369413\O,0,1.23895317,0.14322557,0.15765764\C,0,1.82408446,0.988481
 36,-0.80260604\H,0,-2.98516986,1.49282493,-0.94862376\H,0,-2.19321526,
 0.00592442,-0.43310712\H,0,-1.26197033,1.26217327,-1.24216605\H,0,-1.6

 Normal termination of Gaussian 16 at Wed Apr  9 18:34:55 2025.
 Gaussian 16:  ES64L-G16RevC.01  3-Jul-2019

 ----------------------------------------------------------------------
 #t hf aug-cc-pvdz iop(5/13=1,5/36=2,99/5=2) pseudo=read geom=check gue
 ss=(read,tcheck) scf=(maxcycle=1)
 ----------------------------------------------------------------------
 -----
 title
 -----
 Structure from the checkpoint file:  "Grambow2020_wb97xd3_007723_reverse_mol2.chk"
 Charge =  0 Multiplicity = 1

                         Standard orientation:
 ---------------------------------------------------------------------
 Center     Atomic      Atomic             Coordinates (Angstroms)
 Number     Number       Type             X           Y           Z
 ---------------------------------------------------------------------
      1          6           0        2.379956   -0.622708    0.735841
      2          6           0        2.761946   -0.103021   -0.642944
      3          6           0       -1.644156   -0.924869    0.827515
      4          6           0       -1.490755   -1.401614   -0.595377
      5          6           0       -1.653058    0.045935   -0.313743
      6          8           0       -0.539319    0.847303   -0.523791
      7          6           0       -0.504867    1.969626    0.323645
      8          1           0        3.259886   -0.900711    1.319840
      9          1           0        1.741423   -1.505978    0.662767
     10          1           0        1.830707    0.131736    1.302984
     11          1           0        3.408072    0.774613   -0.570137
     12          1           0        3.300088   -0.859446   -1.217949
     13          1           0       -2.570577   -1.124593    1.349445
     14          1           0       -0.754988   -0.941520    1.444699
     15          1           0       -2.311220   -1.931246   -1.060427
     16          1           0       -0.503326   -1.720437   -0.902044
     17          1           0       -2.598941    0.520152   -0.570869
     18          1           0        1.872953    0.182139   -1.207319
     19          1           0       -1.364537    2.628779    0.150000
     20          1           0        0.411190    2.515363    0.100582
     21          1           0       -0.500567    1.672629    1.379127
 ---------------------------------------------------------------------

 SCF Done:  E(RHF) =  -310.540818931     A.U. after    2 cycles

 The electronic state is 1-A.
 Alpha  occ. eigenvalues --  -20.54720 -11.28523 -11.27991 -11.23163 -11.23119
 Alpha  occ. eigenvalues --  -11.21532 -11.21027  -1.47328  -1.13989  -1.01395
 Alpha  occ. eigenvalues --   -0.93891  -0.83483  -0.83005  -0.80786  -0.70473
 Alpha  occ. eigenvalues --   -0.67454  -0.63053  -0.61113  -0.59554  -0.59283
 Alpha  occ. eigenvalues --   -0.57826  -0.52396  -0.51306  -0.50439  -0.48415
 Alpha  occ. eigenvalues --   -0.48341  -0.46684  -0.42671  -0.39683
 Alpha virt. eigenvalues --    0.03455   0.03651   0.03844   0.04269   0.05552
 Alpha virt. eigenvalues --    0.05740   0.05790   0.06895   0.07724   0.08640
 Alpha virt. eigenvalues --    0.08704   0.09220   0.10184   0.11513   0.12918

 Mulliken charges:
               1
     1  C   -0.433854
     2  C   -0.378690
     3  C   -0.018940
     4  C    0.166558
     5  C    1.512380
     6  O   -1.459569
     7  C    0.102441
     8  H    0.062617
     9  H    0.183899
    10  H    0.155846
    11  H    0.129490
    12  H    0.131400
    13  H   -0.092397
    14  H   -0.175395
    15  H   -0.120978
    16  H   -0.130421
    17  H   -0.139486
    18  H    0.142415
    19  H    0.111571
    20  H   -0.007702
    21  H    0.258815
 Sum of Mulliken charges =   0.00000

 Dipole moment (field-independent basis, Debye):
    X=             -1.0299    Y=              0.3608    Z=              0.8311  Tot=              1.3717

 Test job not archived.
 1\1\GINC-SE131\SP\RHF\Aug-CC-pVDZ\C6H14O1\OHZDE\09-Apr-2025\0\\#t hf a
 ug-cc-pvdz iop(5/13=1,5/36=2,99/5=2) pseudo=read geom=check guess=(rea
 d,tcheck) scf=(maxcycle=1)\\title\\0,1\C,0,-2.06493536,1.08697731,-0.5
 2309407\C,0,-1.74292815,1.71795083,0.82420697\C,0,0.59106915,-1.894826
 9,-1.1127263\C,0,0.41006582,-2.14554671,0.36369451\C,0,1.45580271,-1.2
 0265586,-0.10369413\O,0,1.23895317,0.14322557,0.15765764\C,0,1.8240844
 6,0.98848136,-0.80260604\H,0,-2.98516986,1.49282493,-0.94862376\H,0,-2
 .19321526,0.00592442,-0.43310712\H,0,-1.26197033,1.26217327,-1.2421660

 Normal termination of Gaussian 16 at Wed Apr  9 18:35:03 2025.
