 Gaussian 16, Revision C.01,

 ----------------------------------------------------------------------
 #t hf aug-cc-pvdz symm=none int=(grid=ultrafine) guess=(read,tcheck) s
 table=(opt,rrhf)
 ----------------------------------------------------------------------
 -----
 title
 -----
 Symbolic Z-matrix:
 Charge =  0 Multiplicity = 1

 SCF Done:  E(RHF) =  -232.867036050     A.U. after   17 cycles
 Normal termination of Gaussian 16 at Wed Apr  9 03:15:45 2025.
 Gaussian 16:  ES64L-G16RevC.01  3-Jul-2019

 ----------------------------------------------------------------------
 #t hf aug-cc-pvdz iop(5/13=1,5/36=2,99/5=2) pseudo=read geom=check gue
 ss=(read,tcheck) scf=(maxcycle=1)
 ----------------------------------------------------------------------
 -----
 title
 -----
 Structure from the checkpoint file:  "Grambow2020_b97d3_006954_forward_mol1.chk"
 Charge =  0 Multiplicity = 1

                         Standard orientation:
 ---------------------------------------------------------------------
 Center     Atomic      Atomic             Coordinates (Angstroms)
 Number     Number       Type             X           Y           Z
 ---------------------------------------------------------------------
      1          6           0        2.093225    0.691162   -0.171943
      2          6           0        1.127655   -0.257103    0.460878
      3          6           0        0.359491   -1.287124   -0.256001
      4          6           0       -1.096060   -1.032646    0.063016
      5          6           0       -1.742808    0.208316   -0.056604
      6          6           0       -1.209350    1.475334    0.023621
      7          1           0        2.113334    1.679517    0.310362
      8          1           0        1.889626    0.833597   -1.240501
      9          1           0        3.124406    0.286073   -0.084877
     10          1           0        1.032063   -0.253763    1.546988
     11          1           0        0.550765   -1.281962   -1.340709
     12          1           0        0.613500   -2.297726    0.112211
     13          1           0       -1.681550   -1.883752    0.424501
     14          1           0       -2.817784    0.133174   -0.279144
     15          1           0       -1.712869    2.334926   -0.421520
     16          1           0       -0.304403    1.662280    0.594890
 ---------------------------------------------------------------------

 SCF Done:  E(RHF) =  -233.118667375     A.U. after    2 cycles

 The electronic state is 1-A.
 Alpha  occ. eigenvalues --  -11.29697 -11.25382 -11.25297 -11.23522 -11.23444
 Alpha  occ. eigenvalues --  -11.21385  -1.10686  -1.03441  -0.97695  -0.87572
 Alpha  occ. eigenvalues --   -0.79677  -0.72462  -0.66315  -0.62993  -0.60215
 Alpha  occ. eigenvalues --   -0.58142  -0.57381  -0.56719  -0.52658  -0.50416
 Alpha  occ. eigenvalues --   -0.49386  -0.37336  -0.22644
 Alpha virt. eigenvalues --    0.02520   0.03308   0.03776   0.04197   0.04362
 Alpha virt. eigenvalues --    0.05730   0.06001   0.06349   0.07272   0.08414
 Alpha virt. eigenvalues --    0.08940   0.12700   0.13269   0.13719   0.14236

 Mulliken charges:
               1
     1  C   -0.609150
     2  C    0.293026
     3  C   -0.516570
     4  C    0.178552
     5  C    0.399326
     6  C   -0.125221
     7  H    0.182352
     8  H    0.195173
     9  H    0.202501
    10  H   -0.086636
    11  H    0.161825
    12  H    0.256451
    13  H   -0.183881
    14  H   -0.158189
    15  H   -0.136289
    16  H   -0.053268
 Sum of Mulliken charges =   0.00000

 Dipole moment (field-independent basis, Debye):
    X=              2.2442    Y=             -0.7343    Z=              0.0971  Tot=              2.3633

 Test job not archived.
 1\1\GINC-SE132\SP\RHF\Aug-CC-pVDZ\C6H10\OHZDE\09-Apr-2025\0\\#t hf aug
 -cc-pvdz iop(5/13=1,5/36=2,99/5=2) pseudo=read geom=check guess=(read,
 tcheck) scf=(maxcycle=1)\\title\\0,1\C,0,2.02046557,-0.33962754,-0.083
 65877\C,0,0.6733537,-0.87659931,0.27542845\C,0,-0.41587193,-1.13753181
 ,-0.67874013\C,0,-1.6110005,-0.35380965,-0.18618669\C,0,-1.5971286,1.0
 0866908,0.15445743\C,0,-0.54807194,1.77943865,0.60361608\H,0,2.4516463
 1,0.31040821,0.69184392\H,0,2.00291755,0.21705423,-1.02883329\H,0,2.73
 504345,-1.18116428,-0.21096439\H,0,0.49277078,-1.17963549,1.30709866\H

 Normal termination of Gaussian 16 at Wed Apr  9 03:15:50 2025.
