 Gaussian 16, Revision C.01,

 ----------------------------------------------------------------------
 #t hf aug-cc-pvdz symm=none int=(grid=ultrafine) guess=(read,tcheck) s
 table=(opt,rrhf)
 ----------------------------------------------------------------------
 -----
 title
 -----
 Symbolic Z-matrix:
 Charge =  0 Multiplicity = 1

 SCF Done:  E(RHF) =  -302.814100445     A.U. after   15 cycles
 Normal termination of Gaussian 16 at Wed Apr  9 19:20:04 2025.
 Gaussian 16:  ES64L-G16RevC.01  3-Jul-2019

 ----------------------------------------------------------------------
 #t hf aug-cc-pvdz iop(5/13=1,5/36=2,99/5=2) pseudo=read geom=check gue
 ss=(read,tcheck) scf=(maxcycle=1)
 ----------------------------------------------------------------------
 -----
 title
 -----
 Structure from the checkpoint file:  "Grambow2020_wb97xd3_009342_reverse_mol2.chk"
 Charge =  0 Multiplicity = 1

                         Standard orientation:
 ---------------------------------------------------------------------
 Center     Atomic      Atomic             Coordinates (Angstroms)
 Number     Number       Type             X           Y           Z
 ---------------------------------------------------------------------
      1          6           0       -2.854074   -0.891321    0.098938
      2          7           0       -1.497027   -0.421960   -0.114783
      3          6           0        2.066396    0.026054    0.539141
      4          6           0        1.006247    0.661855    0.143619
      5          6           0        2.884309   -0.884234   -0.330135
      6          6           0       -0.072337    1.307418   -0.212005
      7          7           0       -1.400820    0.803899   -0.064320
      8          1           0       -3.133880   -1.521818   -0.747157
      9          1           0       -3.560170   -0.066721    0.219322
     10          1           0       -2.851791   -1.524604    0.988936
     11          1           0        2.384486    0.157066    1.571063
     12          1           0        2.462041   -0.954263   -1.331189
     13          1           0        2.923098   -1.887018    0.100717
     14          1           0        3.911571   -0.520719   -0.407165
     15          1           0       -0.033674    2.325878   -0.578152
 ---------------------------------------------------------------------

 SCF Done:  E(RHF) =  -303.130235855     A.U. after    2 cycles

 The electronic state is 1-A.
 Alpha  occ. eigenvalues --  -15.56242 -15.55639 -11.26687 -11.25875 -11.25703
 Alpha  occ. eigenvalues --  -11.25676 -11.24176  -1.37275  -1.11176  -1.06747
 Alpha  occ. eigenvalues --   -0.98966  -0.91622  -0.84094  -0.73344  -0.69944
 Alpha  occ. eigenvalues --   -0.68338  -0.64473  -0.61385  -0.59041  -0.58208
 Alpha  occ. eigenvalues --   -0.55347  -0.54163  -0.52308  -0.43472  -0.38299
 Alpha  occ. eigenvalues --   -0.37167
 Alpha virt. eigenvalues --    0.03526   0.04064   0.04541   0.04703   0.05593
 Alpha virt. eigenvalues --    0.05924   0.06252   0.06480   0.07102   0.09770
 Alpha virt. eigenvalues --    0.10753   0.11368   0.11632   0.12611   0.14178

 Mulliken charges:
               1
     1  C   -0.204066
     2  N   -0.011216
     3  C    0.368577
     4  C    0.248821
     5  C   -0.623947
     6  C   -0.553953
     7  N    0.094292
     8  H    0.152892
     9  H    0.081955
    10  H    0.166585
    11  H   -0.146042
    12  H    0.089141
    13  H    0.213557
    14  H    0.199328
    15  H   -0.075924
 Sum of Mulliken charges =  -0.00000

 Dipole moment (field-independent basis, Debye):
    X=              0.8097    Y=             -0.8570    Z=              0.2780  Tot=              1.2114

 Test job not archived.
 1\1\GINC-SE056\SP\RHF\Aug-CC-pVDZ\C5H8N2\OHZDE\09-Apr-2025\0\\#t hf au
 g-cc-pvdz iop(5/13=1,5/36=2,99/5=2) pseudo=read geom=check guess=(read
 ,tcheck) scf=(maxcycle=1)\\title\\0,1\C,0,-3.00625834,0.16642852,-0.60
 588685\N,0,-1.59856336,0.34101009,-0.2969081\C,0,1.7737341,-0.5911894,
 0.74469245\C,0,0.88048216,0.34205517,0.87019923\C,0,2.67218357,-0.7518
 5639,-0.44703743\C,0,-0.03822902,1.25725124,1.028157\N,0,-1.40727197,1
 .10096892,0.65198783\H,0,-3.15689342,0.41078857,-1.65911639\H,0,-3.646
 3009,0.78103828,0.03100445\H,0,-3.2466151,-0.89171494,-0.48054213\H,0,

 Normal termination of Gaussian 16 at Wed Apr  9 19:20:08 2025.
