 Gaussian 16, Revision C.01,

 ----------------------------------------------------------------------
 #t hf aug-cc-pvdz symm=none int=(grid=ultrafine) guess=(read,tcheck) s
 table=(opt,rrhf)
 ----------------------------------------------------------------------
 -----
 title
 -----
 Symbolic Z-matrix:
 Charge =  0 Multiplicity = 1

 SCF Done:  E(RHF) =  -322.446321416     A.U. after   17 cycles
 Normal termination of Gaussian 16 at Wed Apr  9 18:33:28 2025.
 Gaussian 16:  ES64L-G16RevC.01  3-Jul-2019

 ----------------------------------------------------------------------
 #t hf aug-cc-pvdz iop(5/13=1,5/36=2,99/5=2) pseudo=read geom=check gue
 ss=(read,tcheck) scf=(maxcycle=1)
 ----------------------------------------------------------------------
 -----
 title
 -----
 Structure from the checkpoint file:  "Grambow2020_wb97xd3_007711_forward_mol1.chk"
 Charge =  0 Multiplicity = 1

                         Standard orientation:
 ---------------------------------------------------------------------
 Center     Atomic      Atomic             Coordinates (Angstroms)
 Number     Number       Type             X           Y           Z
 ---------------------------------------------------------------------
      1          6           0       -2.519607    0.136997    0.278989
      2          7           0       -1.439376   -0.583362   -0.353225
      3          6           0       -0.250414   -0.216571   -0.063392
      4          8           0        0.358745    1.181588   -0.248379
      5          6           0        1.594262    0.700050   -0.086463
      6          6           0        1.712959   -0.499442    0.697321
      7          6           0        1.010540   -0.945969   -0.445563
      8          1           0       -2.707601    1.089307   -0.229461
      9          1           0       -3.432884   -0.456137    0.231799
     10          1           0       -2.299706    0.363652    1.331799
     11          1           0        2.440255    1.332644   -0.322903
     12          1           0        0.085982   -0.165545    1.214814
     13          1           0        2.628420   -0.882368    1.138708
     14          1           0        1.204773   -1.701116   -1.190492
 ---------------------------------------------------------------------

 SCF Done:  E(RHF) =  -322.776005915     A.U. after    2 cycles

 The electronic state is 1-A.
 Alpha  occ. eigenvalues --  -20.58326 -15.45276 -11.36974 -11.34724 -11.34317
 Alpha  occ. eigenvalues --  -11.30192 -11.23111  -1.52432  -1.20933  -1.18181
 Alpha  occ. eigenvalues --   -0.97075  -0.89384  -0.83051  -0.80761  -0.70941
 Alpha  occ. eigenvalues --   -0.68949  -0.65634  -0.62920  -0.61518  -0.59150
 Alpha  occ. eigenvalues --   -0.56577  -0.51990  -0.46268  -0.41352  -0.39809
 Alpha  occ. eigenvalues --   -0.30857
 Alpha virt. eigenvalues --    0.01907   0.02152   0.03529   0.03945   0.05246
 Alpha virt. eigenvalues --    0.06494   0.06949   0.07928   0.08538   0.10395
 Alpha virt. eigenvalues --    0.10863   0.11261   0.12874   0.13595   0.13957

 Mulliken charges:
               1
     1  C   -0.370330
     2  N    0.830613
     3  C   -1.172504
     4  O   -1.300344
     5  C    1.121640
     6  C    0.222711
     7  C    0.381720
     8  H    0.147588
     9  H    0.042622
    10  H    0.183164
    11  H   -0.066432
    12  H    0.334761
    13  H   -0.141193
    14  H   -0.214015
 Sum of Mulliken charges =   0.00000

 Dipole moment (field-independent basis, Debye):
    X=              5.7076    Y=             -0.1249    Z=              1.2289  Tot=              5.8398

 Test job not archived.
 1\1\GINC-SE029\SP\RHF\Aug-CC-pVDZ\C5H7N1O1\OHZDE\09-Apr-2025\0\\#t hf
 aug-cc-pvdz iop(5/13=1,5/36=2,99/5=2) pseudo=read geom=check guess=(re
 ad,tcheck) scf=(maxcycle=1)\\title\\0,1\C,0,2.2594845,0.02879146,0.902
 59771\N,0,1.1593057,0.8658034,0.4848307\C,0,0.11442566,0.2743627,0.048
 25979\O,0,0.02927304,-0.70444415,-1.13276939\C,0,-1.30079033,-0.587445
 39,-1.17567031\C,0,-1.94912233,-0.23083247,0.05708279\C,0,-1.20692066,
 0.93295048,-0.24903678\H,0,2.83796379,-0.31972051,0.039662\H,0,2.92803
 356,0.59755814,1.54886042\H,0,1.91328796,-0.86060044,1.44782043\H,0,-1

 Normal termination of Gaussian 16 at Wed Apr  9 18:33:33 2025.
