 Gaussian 16, Revision C.01,

 ----------------------------------------------------------------------
 #t hf aug-cc-pvdz symm=none int=(grid=ultrafine) guess=(read,tcheck) s
 table=(opt,rrhf)
 ----------------------------------------------------------------------
 -----
 title
 -----
 Symbolic Z-matrix:
 Charge =  0 Multiplicity = 1

 SCF Done:  E(RHF) =  -322.484473662     A.U. after   15 cycles
 Normal termination of Gaussian 16 at Wed Apr  9 03:27:18 2025.
 Gaussian 16:  ES64L-G16RevC.01  3-Jul-2019

 ----------------------------------------------------------------------
 #t hf aug-cc-pvdz iop(5/13=1,5/36=2,99/5=2) pseudo=read geom=check gue
 ss=(read,tcheck) scf=(maxcycle=1)
 ----------------------------------------------------------------------
 -----
 title
 -----
 Structure from the checkpoint file:  "Grambow2020_wb97xd3_006650_reverse_mol2.chk"
 Charge =  0 Multiplicity = 1

                         Standard orientation:
 ---------------------------------------------------------------------
 Center     Atomic      Atomic             Coordinates (Angstroms)
 Number     Number       Type             X           Y           Z
 ---------------------------------------------------------------------
      1          6           0        1.724304    0.809773    0.077397
      2          7           0        1.626713   -0.675942   -0.057471
      3          6           0        0.411860    0.185150    0.060209
      4          6           0       -0.842704   -0.097208    0.836619
      5          6           0       -1.524697    0.937639   -0.046826
      6          6           0       -0.654949    0.053268   -1.046064
      7          8           0       -1.147633   -1.147590   -0.077050
      8          1           0        2.190118    1.124557    1.003591
      9          1           0        2.079193    1.300244   -0.822652
     10          1           0        1.913815   -1.261656    0.711475
     11          1           0       -0.940331   -0.293075    1.915850
     12          1           0       -1.246131    1.990295    0.063306
     13          1           0       -2.598300    0.799545   -0.156325
     14          1           0        1.712828   -1.079326   -0.984554
 ---------------------------------------------------------------------

 SCF Done:  E(RHF) =  -322.818717464     A.U. after    2 cycles

 The electronic state is 1-A.
 Alpha  occ. eigenvalues --  -20.49047 -15.62826 -11.33499 -11.29421 -11.28845
 Alpha  occ. eigenvalues --  -11.22274 -11.20927  -1.42191  -1.35366  -1.07372
 Alpha  occ. eigenvalues --   -1.01375  -0.88823  -0.86483  -0.81123  -0.79471
 Alpha  occ. eigenvalues --   -0.67031  -0.64754  -0.60911  -0.58920  -0.58294
 Alpha  occ. eigenvalues --   -0.51021  -0.50595  -0.44747  -0.42481  -0.36911
 Alpha  occ. eigenvalues --   -0.27801
 Alpha virt. eigenvalues --    0.01095   0.02911   0.03424   0.04674   0.05674
 Alpha virt. eigenvalues --    0.05978   0.06868   0.08981   0.09267   0.10899
 Alpha virt. eigenvalues --    0.11343   0.12606   0.14012   0.14136   0.14723

 Mulliken charges:
               1
     1  C    0.530325
     2  N    0.651788
     3  C   -0.807874
     4  C    0.762448
     5  C    0.034196
     6  C   -0.146688
     7  O   -1.328870
     8  H   -0.064960
     9  H   -0.061694
    10  H    0.252916
    11  H   -0.078546
    12  H   -0.040338
    13  H   -0.038696
    14  H    0.335995
 Sum of Mulliken charges =  -0.00000

 Dipole moment (field-independent basis, Debye):
    X=              7.2380    Y=              1.3484    Z=              3.8429  Tot=              8.3051

 Test job not archived.
 1\1\GINC-SE452\SP\RHF\Aug-CC-pVDZ\C5H7N1O1\OHZDE\09-Apr-2025\0\\#t hf
 aug-cc-pvdz iop(5/13=1,5/36=2,99/5=2) pseudo=read geom=check guess=(re
 ad,tcheck) scf=(maxcycle=1)\\title\\0,1\C,0,-1.38328224,-0.81303342,-0
 .44349769\N,0,-1.54476481,0.66333631,-0.27227327\C,0,-0.22456952,-0.01
 06453,-0.08780465\C,0,0.81668876,0.27838278,0.95560905\C,0,1.81061535,
 -0.42237742,0.04043528\C,0,0.95982158,0.51988663,-0.92151127\O,0,1.060
 43204,1.53772384,0.3345423\H,0,-1.92234751,-1.39019779,0.29825501\H,0,
 -1.49379656,-1.14069819,-1.47161228\H,0,-2.05385714,1.01554007,0.52368

 Normal termination of Gaussian 16 at Wed Apr  9 03:27:23 2025.
