 Gaussian 16, Revision C.01,

 ----------------------------------------------------------------------
 #t hf aug-cc-pvdz symm=none int=(grid=ultrafine) guess=(read,tcheck) s
 table=(opt,rrhf)
 ----------------------------------------------------------------------
 -----
 title
 -----
 Symbolic Z-matrix:
 Charge =  0 Multiplicity = 1

 SCF Done:  E(RHF) =  -359.582369805     A.U. after   16 cycles
 Normal termination of Gaussian 16 at Wed Apr  9 18:17:17 2025.
 Gaussian 16:  ES64L-G16RevC.01  3-Jul-2019

 ----------------------------------------------------------------------
 #t hf aug-cc-pvdz iop(5/13=1,5/36=2,99/5=2) pseudo=read geom=check gue
 ss=(read,tcheck) scf=(maxcycle=1)
 ----------------------------------------------------------------------
 -----
 title
 -----
 Structure from the checkpoint file:  "Grambow2020_wb97xd3_007275_forward_mol1.chk"
 Charge =  0 Multiplicity = 1

                         Standard orientation:
 ---------------------------------------------------------------------
 Center     Atomic      Atomic             Coordinates (Angstroms)
 Number     Number       Type             X           Y           Z
 ---------------------------------------------------------------------
      1          8           0       -1.894775   -0.909900   -0.233062
      2          6           0       -0.693530   -0.553677    0.132769
      3          6           0        0.549610   -1.369817   -0.166860
      4          7           0        1.640296   -0.509443    0.266751
      5          6           0        1.318871    0.850876   -0.146663
      6          6           0       -0.185220    0.922292    0.013843
      7          8           0       -0.883793    1.887694    0.003864
      8          1           0       -1.497734   -0.767897    1.118275
      9          1           0       -0.655766   -0.558359    1.560258
     10          1           0        0.558759   -2.336130    0.333453
     11          1           0        0.501002   -1.542548   -1.255285
     12          1           0        2.542741   -0.821275   -0.055698
     13          1           0        1.545503    1.070006   -1.202416
     14          1           0        1.813574    1.601905    0.469209
 ---------------------------------------------------------------------

 SCF Done:  E(RHF) =  -359.948331640     A.U. after    2 cycles

 The electronic state is 1-A.
 Alpha  occ. eigenvalues --  -20.56885 -20.50538 -15.52585 -11.38633 -11.36096
 Alpha  occ. eigenvalues --  -11.29677 -11.29637  -1.50749  -1.44442  -1.26775
 Alpha  occ. eigenvalues --   -1.03551  -1.01917  -0.87826  -0.80174  -0.74591
 Alpha  occ. eigenvalues --   -0.73269  -0.67933  -0.65278  -0.64464  -0.62136
 Alpha  occ. eigenvalues --   -0.59537  -0.58558  -0.53222  -0.47924  -0.44820
 Alpha  occ. eigenvalues --   -0.40753  -0.38160
 Alpha virt. eigenvalues --    0.02409   0.03072   0.04149   0.04692   0.05571
 Alpha virt. eigenvalues --    0.06061   0.06864   0.08052   0.08933   0.10802
 Alpha virt. eigenvalues --    0.12345   0.13241   0.14165   0.14385   0.14662

 Mulliken charges:
               1
     1  O   -1.599080
     2  C    0.778757
     3  C   -0.204554
     4  N    0.305782
     5  C   -0.514462
     6  C    1.225454
     7  O   -1.336416
     8  H    0.062826
     9  H    0.397579
    10  H    0.112778
    11  H    0.185029
    12  H    0.190998
    13  H    0.231613
    14  H    0.163697
 Sum of Mulliken charges =  -0.00000

 Dipole moment (field-independent basis, Debye):
    X=              4.9482    Y=             -1.5304    Z=              0.6133  Tot=              5.2157

 Test job not archived.
 1\1\GINC-SE104\SP\RHF\Aug-CC-pVDZ\C4H7N1O2\OHZDE\09-Apr-2025\0\\#t hf
 aug-cc-pvdz iop(5/13=1,5/36=2,99/5=2) pseudo=read geom=check guess=(re
 ad,tcheck) scf=(maxcycle=1)\\title\\0,1\O,0,2.34972908,-0.13225902,-0.
 27004829\C,0,1.06769563,-0.05067002,-0.03885439\C,0,0.23057438,1.16671
 983,-0.38301477\N,0,-1.13295772,0.73561605,-0.11322371\C,0,-1.26649566
 ,-0.63206716,-0.59933601\C,0,0.08984223,-1.24197254,-0.31382814\O,0,0.
 4017881,-2.39188308,-0.33617255\H,0,1.78361365,-0.1773179,1.02663956\H
 ,0,0.87892187,-0.09011491,1.37605901\H,0,0.50679768,2.05174597,0.18671

 Normal termination of Gaussian 16 at Wed Apr  9 18:17:21 2025.
