 Gaussian 16, Revision C.01,

 ----------------------------------------------------------------------
 #t hf aug-cc-pvdz symm=none int=(grid=ultrafine) guess=(read,tcheck) s
 table=(opt,rrhf)
 ----------------------------------------------------------------------
 -----
 title
 -----
 Symbolic Z-matrix:
 Charge =  0 Multiplicity = 1

 SCF Done:  E(RHF) =  -376.782653999     A.U. after   15 cycles
 Normal termination of Gaussian 16 at Wed Apr  9 03:59:49 2025.
 Gaussian 16:  ES64L-G16RevC.01  3-Jul-2019

 ----------------------------------------------------------------------
 #t hf aug-cc-pvdz iop(5/13=1,5/36=2,99/5=2) pseudo=read geom=check gue
 ss=(read,tcheck) scf=(maxcycle=1)
 ----------------------------------------------------------------------
 -----
 title
 -----
 Structure from the checkpoint file:  "Grambow2020_wb97xd3_008741_reverse_mol1.chk"
 Charge =  0 Multiplicity = 1

                         Standard orientation:
 ---------------------------------------------------------------------
 Center     Atomic      Atomic             Coordinates (Angstroms)
 Number     Number       Type             X           Y           Z
 ---------------------------------------------------------------------
      1          7           0       -1.591610    1.220999   -0.438823
      2          6           0       -1.280499   -0.171065   -0.240752
      3          8           0       -1.993636   -1.146474   -0.361952
      4          7           0       -0.439347   -0.040936    1.277735
      5          6           0        0.555433   -0.424053    0.466511
      6          6           0        1.798730    0.390072    0.244896
      7          8           0        2.629691   -0.103201   -0.770463
      8          1           0       -1.909424    1.324574   -1.394748
      9          1           0       -2.375815    1.447638    0.163157
     10          1           0       -0.349664    0.948459    1.490036
     11          1           0       -0.204219   -0.232854   -0.877752
     12          1           0        0.617886   -1.493945    0.261123
     13          1           0        2.310557    0.453259    1.216505
     14          1           0        1.505824    1.404624   -0.034154
     15          1           0        3.091126   -0.884516   -0.461167
 ---------------------------------------------------------------------

 SCF Done:  E(RHF) =  -377.172080606     A.U. after    2 cycles

 The electronic state is 1-A.
 Alpha  occ. eigenvalues --  -20.58993 -20.47563 -15.51729 -15.50901 -11.39841
 Alpha  occ. eigenvalues --  -11.36985 -11.33570  -1.49706  -1.44122  -1.27030
 Alpha  occ. eigenvalues --   -1.19411  -1.02173  -0.90112  -0.84237  -0.75334
 Alpha  occ. eigenvalues --   -0.73181  -0.72107  -0.68680  -0.65764  -0.62916
 Alpha  occ. eigenvalues --   -0.61652  -0.59376  -0.54648  -0.51777  -0.49691
 Alpha  occ. eigenvalues --   -0.46904  -0.40562  -0.36930
 Alpha virt. eigenvalues --    0.02559   0.03359   0.03778   0.04789   0.06054
 Alpha virt. eigenvalues --    0.06269   0.06742   0.08525   0.08709   0.10417
 Alpha virt. eigenvalues --    0.11581   0.13412   0.13528   0.14119   0.14904

 Mulliken charges:
               1
     1  N    0.154583
     2  C    0.234419
     3  O   -1.396644
     4  N    0.550210
     5  C   -1.440916
     6  C    1.106284
     7  O   -1.108104
     8  H    0.222376
     9  H    0.285115
    10  H    0.284787
    11  H    0.519177
    12  H   -0.030580
    13  H    0.250771
    14  H    0.106198
    15  H    0.262324
 Sum of Mulliken charges =  -0.00000

 Dipole moment (field-independent basis, Debye):
    X=              4.1509    Y=              2.3185    Z=              0.5150  Tot=              4.7823

 Test job not archived.
 1\1\GINC-SE220\SP\RHF\Aug-CC-pVDZ\C3H8N2O2\OHZDE\09-Apr-2025\0\\#t hf
 aug-cc-pvdz iop(5/13=1,5/36=2,99/5=2) pseudo=read geom=check guess=(re
 ad,tcheck) scf=(maxcycle=1)\\title\\0,1\N,0,1.56314104,0.01851388,-1.2
 4321606\C,0,1.04026458,0.99366414,-0.32150855\O,0,1.37237798,2.1489087
 1,-0.1489194\N,0,0.9919349,0.00518576,1.1105696\C,0,-0.31467954,0.2074
 6233,0.89540699\C,0,-1.29431384,-0.90765754,0.66190306\O,0,-2.57273215
 ,-0.47375518,0.28488679\H,0,1.45430769,0.39813832,-2.17572211\H,0,2.55
 879727,-0.06424968,-1.06845828\H,0,1.24475132,-0.93931654,0.83485873\H

 Normal termination of Gaussian 16 at Wed Apr  9 03:59:55 2025.
