 Gaussian 16, Revision C.01,

 ----------------------------------------------------------------------
 #t hf aug-cc-pvdz symm=none int=(grid=ultrafine) guess=(read,tcheck) s
 table=(opt,rrhf)
 ----------------------------------------------------------------------
 -----
 title
 -----
 Symbolic Z-matrix:
 Charge =  0 Multiplicity = 1

 SCF Done:  E(RHF) =  -358.449942919     A.U. after   16 cycles
 Normal termination of Gaussian 16 at Wed Apr  9 03:34:08 2025.
 Gaussian 16:  ES64L-G16RevC.01  3-Jul-2019

 ----------------------------------------------------------------------
 #t hf aug-cc-pvdz iop(5/13=1,5/36=2,99/5=2) pseudo=read geom=check gue
 ss=(read,tcheck) scf=(maxcycle=1)
 ----------------------------------------------------------------------
 -----
 title
 -----
 Structure from the checkpoint file:  "Grambow2020_wb97xd3_007082_forward_mol1.chk"
 Charge =  0 Multiplicity = 1

                         Standard orientation:
 ---------------------------------------------------------------------
 Center     Atomic      Atomic             Coordinates (Angstroms)
 Number     Number       Type             X           Y           Z
 ---------------------------------------------------------------------
      1          8           0       -2.157104   -0.345778   -0.010609
      2          6           0       -0.994391   -0.031684   -0.062766
      3          7           0       -0.451554    1.182220    0.216469
      4          6           0        0.968855    1.274093   -0.044882
      5          6           0        1.386556   -0.076298   -0.558763
      6          8           0        0.945147   -1.208953    0.707624
      7          6           0        0.174046   -0.917275   -0.470115
      8          1           0       -1.007446    1.920111    0.611177
      9          1           0        1.549498    1.565163    0.833351
     10          1           0        1.193798    1.990984   -0.843764
     11          1           0        1.951223   -1.041337    0.237205
     12          1           0       -0.040942   -1.765618   -1.110224
 ---------------------------------------------------------------------

 SCF Done:  E(RHF) =  -358.808075215     A.U. after    2 cycles

 The electronic state is 1-A.
 Alpha  occ. eigenvalues --  -20.62389 -20.52421 -15.53901 -11.36979 -11.32654
 Alpha  occ. eigenvalues --  -11.30741 -11.30451  -1.52598  -1.47328  -1.27686
 Alpha  occ. eigenvalues --   -1.04791  -1.00537  -0.85714  -0.84504  -0.73485
 Alpha  occ. eigenvalues --   -0.71210  -0.68731  -0.66898  -0.63366  -0.60292
 Alpha  occ. eigenvalues --   -0.56941  -0.53315  -0.50063  -0.43849  -0.43161
 Alpha  occ. eigenvalues --   -0.40408
 Alpha virt. eigenvalues --    0.02974   0.04247   0.04388   0.04798   0.05830
 Alpha virt. eigenvalues --    0.07177   0.09276   0.09861   0.11048   0.12089
 Alpha virt. eigenvalues --    0.13312   0.13861   0.14043   0.14692   0.15357

 Mulliken charges:
               1
     1  O   -1.209394
     2  C    0.647579
     3  N    0.676579
     4  C   -0.206490
     5  C   -0.542596
     6  O   -1.277483
     7  C    0.861095
     8  H    0.030631
     9  H    0.114210
    10  H    0.190373
    11  H    0.700096
    12  H    0.015399
 Sum of Mulliken charges =  -0.00000

 Dipole moment (field-independent basis, Debye):
    X=              2.6813    Y=              2.1940    Z=             -0.2284  Tot=              3.4721

 Test job not archived.
 1\1\GINC-SE343\SP\RHF\Aug-CC-pVDZ\C4H5N1O2\OHZDE\09-Apr-2025\0\\#t hf
 aug-cc-pvdz iop(5/13=1,5/36=2,99/5=2) pseudo=read geom=check guess=(re
 ad,tcheck) scf=(maxcycle=1)\\title\\0,1\O,0,0.89527365,2.22852552,0.76
 088867\C,0,0.4993507,1.16694745,0.34909338\N,0,1.24523215,0.10788761,-
 0.06110288\C,0,0.47383224,-0.98941815,-0.60439647\C,0,-0.96731583,-0.5
 6698625,-0.52226935\O,0,-1.25583395,-0.23802425,1.17773872\C,0,-0.9499
 1527,0.73956394,0.16903793\H,0,2.24293479,0.10010233,0.05646535\H,0,0.
 64423519,-1.93409956,-0.08314715\H,0,0.68665346,-1.15411265,-1.6675657

 Normal termination of Gaussian 16 at Wed Apr  9 03:34:12 2025.
