 Gaussian 16, Revision C.01,

 ----------------------------------------------------------------------
 #t hf aug-cc-pvdz symm=none int=(grid=ultrafine) guess=(read,tcheck) s
 table=(opt,rrhf)
 ----------------------------------------------------------------------
 -----
 title
 -----
 Symbolic Z-matrix:
 Charge =  0 Multiplicity = 1

 SCF Done:  E(RHF) =  -344.783640506     A.U. after   15 cycles

 1\1\GINC-SE455\Stability\RHF\Aug-CC-pVDZ\C5H10O2\OHZDE\09-Apr-2025\0\\
 #t hf aug-cc-pvdz symm=none int=(grid=ultrafine) guess=(read,tcheck) s
 table=(opt,rrhf)\\title\\0,1\C,0,-2.40570637,-0.42649301,-0.38044844\C
 ,0,-1.1608753,0.40494761,-0.65530627\C,0,-0.00111736,0.11525942,0.2382
 4264\O,0,0.37977802,-1.64432021,-0.19222909\C,0,1.23758543,0.85832622,
 -0.16822151\C,0,2.52521309,0.41498864,0.47345118\O,0,2.84793469,-0.740
 54767,0.60009377\H,0,-3.23814547,-0.10651085,-1.00980981\H,0,-2.217006
 03,-1.48077723,-0.5871173\H,0,-2.70735917,-0.33360787,0.66428593\H,0,-

 Normal termination of Gaussian 16 at Wed Apr  9 03:45:47 2025.
 Gaussian 16:  ES64L-G16RevC.01  3-Jul-2019

 ----------------------------------------------------------------------
 #t hf aug-cc-pvdz iop(5/13=1,5/36=2,99/5=2) pseudo=read geom=check gue
 ss=(read,tcheck) scf=(maxcycle=1)
 ----------------------------------------------------------------------
 -----
 title
 -----
 Structure from the checkpoint file:  "Grambow2020_wb97xd3_007832_reverse_mol1.chk"
 Charge =  0 Multiplicity = 1

                         Standard orientation:
 ---------------------------------------------------------------------
 Center     Atomic      Atomic             Coordinates (Angstroms)
 Number     Number       Type             X           Y           Z
 ---------------------------------------------------------------------
      1          6           0       -2.845443    0.181570   -0.210566
      2          6           0       -1.653564   -0.660511    0.221604
      3          6           0       -0.350291   -0.266238   -0.389472
      4          8           0       -0.117109    1.442608    0.282822
      5          6           0        0.806896   -1.034288    0.178652
      6          6           0        2.181057   -0.512213   -0.145994
      7          8           0        2.485899    0.653670   -0.089074
      8          1           0       -3.775007   -0.211599    0.205086
      9          1           0       -2.734364    1.210396    0.134419
     10          1           0       -2.932454    0.195353   -1.298376
     11          1           0       -1.592118   -0.703126    1.319401
     12          1           0       -1.799302   -1.696790   -0.114830
     13          1           0       -0.238917    1.125518   -0.725692
     14          1           0        0.854659    1.498871    0.346914
     15          1           0        0.713904   -2.052224   -0.213564
     16          1           0        0.768692   -1.126514    1.279603
     17          1           0        2.952658   -1.260036   -0.408286
 ---------------------------------------------------------------------

 SCF Done:  E(RHF) =  -345.142530794     A.U. after    2 cycles

 The electronic state is 1-A.
 Alpha  occ. eigenvalues --  -20.56918 -20.56745 -11.36378 -11.27508 -11.26555
 Alpha  occ. eigenvalues --  -11.23722 -11.21898  -1.50589  -1.44908  -1.09610
 Alpha  occ. eigenvalues --   -1.02916  -0.90589  -0.82400  -0.78056  -0.70877
 Alpha  occ. eigenvalues --   -0.68084  -0.66605  -0.63353  -0.61900  -0.60406
 Alpha  occ. eigenvalues --   -0.57354  -0.53617  -0.52966  -0.50758  -0.50451
 Alpha  occ. eigenvalues --   -0.48194  -0.43581  -0.33668
 Alpha virt. eigenvalues --    0.02997   0.03807   0.04056   0.04802   0.05751
 Alpha virt. eigenvalues --    0.06432   0.06875   0.07495   0.08501   0.08961
 Alpha virt. eigenvalues --    0.09910   0.10775   0.11953   0.13755   0.14408

 Mulliken charges:
               1
     1  C   -0.370683
     2  C   -0.205192
     3  C   -0.521869
     4  O   -1.151656
     5  C   -0.718879
     6  C    1.295058
     7  O   -1.213368
     8  H    0.123688
     9  H    0.197066
    10  H    0.166046
    11  H    0.141059
    12  H    0.234468
    13  H    0.811787
    14  H    0.567933
    15  H    0.177906
    16  H    0.311082
    17  H    0.155554
 Sum of Mulliken charges =  -0.00000

 Dipole moment (field-independent basis, Debye):
    X=              0.3713    Y=             -3.0858    Z=              0.5123  Tot=              3.1500

 Test job not archived.
 1\1\GINC-SE455\SP\RHF\Aug-CC-pVDZ\C5H10O2\OHZDE\09-Apr-2025\0\\#t hf a
 ug-cc-pvdz iop(5/13=1,5/36=2,99/5=2) pseudo=read geom=check guess=(rea
 d,tcheck) scf=(maxcycle=1)\\title\\0,1\C,0,-2.40570637,-0.42649301,-0.
 38044844\C,0,-1.1608753,0.40494761,-0.65530627\C,0,-0.00111736,0.11525
 942,0.23824264\O,0,0.37977802,-1.64432021,-0.19222909\C,0,1.23758543,0
 .85832622,-0.16822151\C,0,2.52521309,0.41498864,0.47345118\O,0,2.84793
 469,-0.74054767,0.60009377\H,0,-3.23814547,-0.10651085,-1.00980981\H,0
 ,-2.21700603,-1.48077723,-0.5871173\H,0,-2.70735917,-0.33360787,0.6642

 Normal termination of Gaussian 16 at Wed Apr  9 03:45:53 2025.
