 Gaussian 16, Revision C.01,

 ----------------------------------------------------------------------
 #t hf aug-cc-pvdz symm=none int=(grid=ultrafine) guess=(read,tcheck) s
 table=(opt,rrhf)
 ----------------------------------------------------------------------
 -----
 title
 -----
 Symbolic Z-matrix:
 Charge =  0 Multiplicity = 1

 SCF Done:  E(RHF) =  -283.534675390     A.U. after   17 cycles
 Normal termination of Gaussian 16 at Wed Apr  9 16:13:42 2025.
 Gaussian 16:  ES64L-G16RevC.01  3-Jul-2019

 ----------------------------------------------------------------------
 #t hf aug-cc-pvdz iop(5/13=1,5/36=2,99/5=2) pseudo=read geom=check gue
 ss=(read,tcheck) scf=(maxcycle=1)
 ----------------------------------------------------------------------
 -----
 title
 -----
 Structure from the checkpoint file:  "Grambow2020_b97d3_007175_forward_mol1.chk"
 Charge =  0 Multiplicity = 1

                         Standard orientation:
 ---------------------------------------------------------------------
 Center     Atomic      Atomic             Coordinates (Angstroms)
 Number     Number       Type             X           Y           Z
 ---------------------------------------------------------------------
      1          6           0       -1.372555   -1.196161    0.117535
      2          7           0       -0.039553   -1.125876   -0.005483
      3          6           0        0.881127    0.135999    0.067058
      4          8           0        2.068664   -0.084645   -0.012932
      5          6           0        0.110512    1.345606    0.112846
      6          6           0       -1.172055    1.429901   -0.148038
      7          1           0       -1.925499   -1.875385   -0.530423
      8          1           0       -1.703554    0.447219   -0.505498
      9          1           0       -1.825109   -0.887429    1.057814
     10          1           0        0.346031   -1.692996   -0.764203
     11          1           0       -1.846484    2.274810   -0.012256
 ---------------------------------------------------------------------

 SCF Done:  E(RHF) =  -283.818545986     A.U. after    2 cycles

 The electronic state is 1-A.
 Alpha  occ. eigenvalues --  -20.54955 -15.59796 -11.39836 -11.38063 -11.26369
 Alpha  occ. eigenvalues --  -11.21683  -1.48681  -1.29279  -1.05951  -0.98351
 Alpha  occ. eigenvalues --   -0.87252  -0.78110  -0.77434  -0.68657  -0.66588
 Alpha  occ. eigenvalues --   -0.63887  -0.61549  -0.56112  -0.50506  -0.46359
 Alpha  occ. eigenvalues --   -0.38314  -0.30781
 Alpha virt. eigenvalues --    0.00814   0.01957   0.03454   0.04416   0.04807
 Alpha virt. eigenvalues --    0.06221   0.07799   0.09261   0.10355   0.10800
 Alpha virt. eigenvalues --    0.11842   0.13124   0.13835   0.14643   0.15370

 Mulliken charges:
               1
     1  C   -0.584749
     2  N    0.536162
     3  C    0.655085
     4  O   -1.134679
     5  C    0.013903
     6  C   -0.000040
     7  H    0.043367
     8  H    0.233460
     9  H    0.111979
    10  H    0.258157
    11  H   -0.132645
 Sum of Mulliken charges =  -0.00000

 Dipole moment (field-independent basis, Debye):
    X=             -5.6646    Y=             -4.3835    Z=             -0.8072  Tot=              7.2079

 Test job not archived.
 1\1\GINC-SE141\SP\RHF\Aug-CC-pVDZ\C4H5N1O1\OHZDE\09-Apr-2025\0\\#t hf
 aug-cc-pvdz iop(5/13=1,5/36=2,99/5=2) pseudo=read geom=check guess=(re
 ad,tcheck) scf=(maxcycle=1)\\title\\0,1\C,0,-1.00563729,0.38152214,-0.
 84553302\N,0,-0.90277769,-0.65644393,-0.00350397\C,0,0.17329262,-0.912
 32616,1.10186529\O,0,-0.00021256,-1.90467074,1.77303896\C,0,1.23567753
 ,0.04975556,1.03237165\C,0,1.44595191,0.86585498,0.02742762\H,0,-1.304
 2423,0.1948742,-1.87652321\H,0,0.7440782,0.74676632,-0.90484031\H,0,-1
 .15826011,1.37550002,-0.42964861\H,0,-1.06225507,-1.56954339,-0.435675

 Normal termination of Gaussian 16 at Wed Apr  9 16:13:46 2025.
