 Gaussian 16, Revision C.01,

 ----------------------------------------------------------------------
 #t hf aug-cc-pvdz symm=none int=(grid=ultrafine) guess=(read,tcheck) s
 table=(opt,rrhf)
 ----------------------------------------------------------------------
 -----
 title
 -----
 Symbolic Z-matrix:
 Charge =  0 Multiplicity = 1

 SCF Done:  E(RHF) =  -186.833380831     A.U. after   15 cycles
 Normal termination of Gaussian 16 at Wed Apr  9 03:08:35 2025.
 Gaussian 16:  ES64L-G16RevC.01  3-Jul-2019

 ----------------------------------------------------------------------
 #t hf aug-cc-pvdz iop(5/13=1,5/36=2,99/5=2) pseudo=read geom=check gue
 ss=(read,tcheck) scf=(maxcycle=1)
 ----------------------------------------------------------------------
 -----
 title
 -----
 Structure from the checkpoint file:  "Grambow2020_b97d3_006606_reverse_mol1.chk"
 Charge =  0 Multiplicity = 1

                         Standard orientation:
 ---------------------------------------------------------------------
 Center     Atomic      Atomic             Coordinates (Angstroms)
 Number     Number       Type             X           Y           Z
 ---------------------------------------------------------------------
      1          7           0        1.572648   -0.411498    0.010161
      2          6           0        0.408026    0.702999   -0.110846
      3          6           0       -0.885358    0.154062    0.011225
      4          7           0       -1.958563   -0.336599    0.026482
      5          1           0        2.097586   -0.451792    0.892264
      6          1           0        1.233041   -1.324510   -0.292865
      7          1           0        1.561540    0.376096   -0.849321
      8          1           0        0.673231    1.494512    0.591148
 ---------------------------------------------------------------------

 SCF Done:  E(RHF) =  -187.021805090     A.U. after    2 cycles

 The electronic state is 1-A.
 Alpha  occ. eigenvalues --  -15.59645 -15.49635 -11.28243 -11.27308  -1.26195
 Alpha  occ. eigenvalues --   -1.19688  -0.97590  -0.80802  -0.78449  -0.64571
 Alpha  occ. eigenvalues --   -0.60258  -0.58106  -0.51018  -0.47137  -0.35536
 Alpha virt. eigenvalues --    0.01355   0.04421   0.04824   0.05426   0.08836
 Alpha virt. eigenvalues --    0.09652   0.11119   0.12162   0.13321   0.14180
 Alpha virt. eigenvalues --    0.15198   0.17293   0.17882   0.18351   0.18950

 Mulliken charges:
               1
     1  N   -0.072981
     2  C   -0.133616
     3  C   -1.253125
     4  N    0.655444
     5  H    0.178442
     6  H    0.140396
     7  H    0.479331
     8  H    0.006110
 Sum of Mulliken charges =   0.00000

 Dipole moment (field-independent basis, Debye):
    X=              6.4994    Y=             -0.2500    Z=              0.9916  Tot=              6.5793

 Test job not archived.
 1\1\GINC-SE149\SP\RHF\Aug-CC-pVDZ\C2H4N2\OHZDE\09-Apr-2025\0\\#t hf au
 g-cc-pvdz iop(5/13=1,5/36=2,99/5=2) pseudo=read geom=check guess=(read
 ,tcheck) scf=(maxcycle=1)\\title\\0,1\N,0,-1.00456428,-0.35128891,0.26
 766448\C,0,0.1881459,0.66451009,-0.13068889\C,0,1.45186607,0.03868015,
 -0.15129759\N,0,2.50831389,-0.48186359,-0.07579327\H,0,-1.61529855,-0.
 68213186,-0.48919432\H,0,-0.65464748,-1.1076711,0.85604599\H,0,-0.8924
 7177,0.69397557,0.77164214\H,0,-0.12982377,1.15813667,-1.04984653\\Ver
 sion=ES64L-G16RevC.01\State=1-A\HF=-187.0218051\RMSD=1.919e-02\Dipole=

 Normal termination of Gaussian 16 at Wed Apr  9 03:08:37 2025.
