 Gaussian 16, Revision C.01,

 ----------------------------------------------------------------------
 #t hf aug-cc-pvdz symm=none int=(grid=ultrafine) guess=(read,tcheck) s
 table=(opt,rrhf)
 ----------------------------------------------------------------------
 -----
 title
 -----
 Symbolic Z-matrix:
 Charge =  0 Multiplicity = 1

 SCF Done:  E(RHF) =  -338.753514059     A.U. after   15 cycles
 Normal termination of Gaussian 16 at Wed Apr  9 19:01:47 2025.
 Gaussian 16:  ES64L-G16RevC.01  3-Jul-2019

 ----------------------------------------------------------------------
 #t hf aug-cc-pvdz iop(5/13=1,5/36=2,99/5=2) pseudo=read geom=check gue
 ss=(read,tcheck) scf=(maxcycle=1)
 ----------------------------------------------------------------------
 -----
 title
 -----
 Structure from the checkpoint file:  "Grambow2020_wb97xd3_008472_reverse_mol2.chk"
 Charge =  0 Multiplicity = 1

                         Standard orientation:
 ---------------------------------------------------------------------
 Center     Atomic      Atomic             Coordinates (Angstroms)
 Number     Number       Type             X           Y           Z
 ---------------------------------------------------------------------
      1          7           0        1.489234   -1.373756   -0.057803
      2          6           0        0.299450   -0.712203   -0.005329
      3          6           0        0.238009    0.760665   -0.004645
      4          8           0        1.386177    1.475534   -0.000334
      5          6           0       -1.049657    1.104973    0.001220
      6          6           0       -1.828049   -0.176904    0.004075
      7          7           0       -0.858663   -1.259112    0.006033
      8          1           0        1.465623   -2.356047    0.150036
      9          1           0        2.312335   -0.869217    0.217139
     10          1           0        1.186093    2.413638    0.013347
     11          1           0       -1.471618    2.100183    0.002637
     12          1           0       -2.476102   -0.259260    0.883365
     13          1           0       -2.478258   -0.262689   -0.873387
 ---------------------------------------------------------------------

 SCF Done:  E(RHF) =  -339.100941315     A.U. after    2 cycles

 The electronic state is 1-A.
 Alpha  occ. eigenvalues --  -20.59611 -15.51361 -15.46169 -11.31001 -11.30696
 Alpha  occ. eigenvalues --  -11.25479 -11.23730  -1.51240  -1.27785  -1.19042
 Alpha  occ. eigenvalues --   -1.04373  -0.95924  -0.84650  -0.79179  -0.75180
 Alpha  occ. eigenvalues --   -0.70900  -0.68286  -0.64217  -0.60884  -0.58173
 Alpha  occ. eigenvalues --   -0.56552  -0.54809  -0.53811  -0.45021  -0.39374
 Alpha  occ. eigenvalues --   -0.35180
 Alpha virt. eigenvalues --    0.02823   0.03960   0.04344   0.05649   0.05905
 Alpha virt. eigenvalues --    0.07145   0.09682   0.10617   0.12060   0.12645
 Alpha virt. eigenvalues --    0.13079   0.13344   0.13902   0.14244   0.15046

 Mulliken charges:
               1
     1  N    0.931233
     2  C   -2.687038
     3  C    1.941121
     4  O   -1.805340
     5  C    0.272982
     6  C   -0.306520
     7  N    0.892040
     8  H    0.045776
     9  H    0.182282
    10  H    0.385954
    11  H   -0.109841
    12  H    0.129283
    13  H    0.128069
 Sum of Mulliken charges =  -0.00000

 Dipole moment (field-independent basis, Debye):
    X=              1.1279    Y=              3.0969    Z=              0.7573  Tot=              3.3818

 Test job not archived.
 1\1\GINC-SE220\SP\RHF\Aug-CC-pVDZ\C4H6N2O1\OHZDE\09-Apr-2025\0\\#t hf
 aug-cc-pvdz iop(5/13=1,5/36=2,99/5=2) pseudo=read geom=check guess=(re
 ad,tcheck) scf=(maxcycle=1)\\title\\0,1\N,0,2.07356145,0.55054077,-0.0
 6003211\C,0,0.71370126,0.47226327,-0.08544061\C,0,0.01029172,-0.787752
 3,0.21571061\O,0,0.72658757,-1.90664064,0.46939473\C,0,-1.29749586,-0.
 5362162,0.1601525\C,0,-1.43226556,0.91723771,-0.18396784\N,0,-0.085558
 63,1.44515429,-0.32024039\H,0,2.48318669,1.37091001,-0.46973114\H,0,2.
 5885945,-0.30693457,-0.14443835\H,0,0.13395394,-2.64301649,0.63309309\

 Normal termination of Gaussian 16 at Wed Apr  9 19:01:51 2025.
