 Gaussian 16, Revision C.01,

 ----------------------------------------------------------------------
 #t hf aug-cc-pvdz symm=none int=(grid=ultrafine) guess=(read,tcheck) s
 table=(opt,rrhf)
 ----------------------------------------------------------------------
 -----
 title
 -----
 Symbolic Z-matrix:
 Charge =  0 Multiplicity = 1

 SCF Done:  E(RHF) =  -336.677397325     A.U. after   14 cycles
 Normal termination of Gaussian 16 at Wed Apr  9 16:05:43 2025.
 Gaussian 16:  ES64L-G16RevC.01  3-Jul-2019

 ----------------------------------------------------------------------
 #t hf aug-cc-pvdz iop(5/13=1,5/36=2,99/5=2) pseudo=read geom=check gue
 ss=(read,tcheck) scf=(maxcycle=1)
 ----------------------------------------------------------------------
 -----
 title
 -----
 Structure from the checkpoint file:  "Grambow2020_b97d3_007116_forward_mol1.chk"
 Charge =  0 Multiplicity = 1

                         Standard orientation:
 ---------------------------------------------------------------------
 Center     Atomic      Atomic             Coordinates (Angstroms)
 Number     Number       Type             X           Y           Z
 ---------------------------------------------------------------------
      1          7           0        1.499370   -0.987236    0.024707
      2          6           0        0.810138    0.185220   -0.005720
      3          8           0        1.298837    1.312104   -0.025352
      4          6           0       -0.691676   -0.026588   -0.005027
      5          8           0       -1.269238   -1.194522   -0.028584
      6          7           0       -1.614045    0.895232    0.027774
      7          1           0        1.004459   -1.872474    0.036592
      8          1           0        2.512964   -0.970193    0.033776
      9          1           0       -2.260587   -0.298488    0.006267
     10          1           0       -1.401684    1.892740    0.051971
 ---------------------------------------------------------------------

 SCF Done:  E(RHF) =  -337.007192436     A.U. after    2 cycles

 The electronic state is 1-A.
 Alpha  occ. eigenvalues --  -20.56207 -20.54815 -15.55850 -15.52753 -11.40402
 Alpha  occ. eigenvalues --  -11.39003  -1.50207  -1.48140  -1.25113  -1.21574
 Alpha  occ. eigenvalues --   -0.95925  -0.83389  -0.82265  -0.75492  -0.68210
 Alpha  occ. eigenvalues --   -0.64607  -0.63838  -0.59495  -0.58254  -0.49829
 Alpha  occ. eigenvalues --   -0.46410  -0.45651  -0.43708
 Alpha virt. eigenvalues --    0.02962   0.04292   0.05842   0.05959   0.06591
 Alpha virt. eigenvalues --    0.10101   0.10901   0.11625   0.11782   0.13242
 Alpha virt. eigenvalues --    0.13884   0.15311   0.16202   0.16990   0.19386

 Mulliken charges:
               1
     1  N    0.610377
     2  C    0.701972
     3  O   -1.303401
     4  C   -0.024806
     5  O   -1.449519
     6  N    0.748217
     7  H    0.070748
     8  H    0.105127
     9  H    0.481712
    10  H    0.059574
 Sum of Mulliken charges =   0.00000

 Dipole moment (field-independent basis, Debye):
    X=              0.8741    Y=             -1.6041    Z=              0.1312  Tot=              1.8315

 Test job not archived.
 1\1\GINC-SE138\SP\RHF\Aug-CC-pVDZ\C2H4N2O2\OHZDE\09-Apr-2025\0\\#t hf
 aug-cc-pvdz iop(5/13=1,5/36=2,99/5=2) pseudo=read geom=check guess=(re
 ad,tcheck) scf=(maxcycle=1)\\title\\0,1\N,0,-1.71255567,0.08710715,0.3
 4361845\C,0,-0.52672753,0.69015692,0.05942793\O,0,-0.34382071,1.896466
 7,-0.08354201\C,0,0.60902468,-0.30506254,-0.08168023\O,0,0.48752721,-1
 .5896687,0.10060407\N,0,1.84515136,-0.04405664,-0.40642757\H,0,-1.7634
 2834,-0.92069739,0.44591708\H,0,-2.546345,0.653049,0.45430173\H,0,1.76
 707572,-1.38794121,-0.22943406\H,0,2.18108627,0.89951671,-0.6001304\\V

 Normal termination of Gaussian 16 at Wed Apr  9 16:05:47 2025.
