 Gaussian 16, Revision C.01,

 ----------------------------------------------------------------------
 #t hf aug-cc-pvdz symm=none int=(grid=ultrafine) guess=(read,tcheck) s
 table=(opt,rrhf)
 ----------------------------------------------------------------------
 -----
 title
 -----
 Symbolic Z-matrix:
 Charge =  0 Multiplicity = 1

 SCF Done:  E(RHF) =  -272.052679448     A.U. after   13 cycles
 Normal termination of Gaussian 16 at Wed Apr  9 03:40:21 2025.
 Gaussian 16:  ES64L-G16RevC.01  3-Jul-2019

 ----------------------------------------------------------------------
 #t hf aug-cc-pvdz iop(5/13=1,5/36=2,99/5=2) pseudo=read geom=check gue
 ss=(read,tcheck) scf=(maxcycle=1)
 ----------------------------------------------------------------------
 -----
 title
 -----
 Structure from the checkpoint file:  "Grambow2020_wb97xd3_007430_reverse_mol2.chk"
 Charge =  0 Multiplicity = 1

                         Standard orientation:
 ---------------------------------------------------------------------
 Center     Atomic      Atomic             Coordinates (Angstroms)
 Number     Number       Type             X           Y           Z
 ---------------------------------------------------------------------
      1          6           0        1.036479    1.917583    0.360656
      2          6           0        1.103139    0.756153   -0.630027
      3          6           0        0.826859   -0.588491   -0.008925
      4          6           0       -0.521376   -0.776259    0.650093
      5          6           0       -1.667132   -0.545493   -0.293471
      6          6           0       -2.626634    0.349548   -0.117857
      7          6           0        1.719782   -1.570198   -0.040821
      8          1           0        1.308193    2.854336   -0.128405
      9          1           0        1.722406    1.759747    1.195775
     10          1           0        0.030875    2.040590    0.766954
     11          1           0        0.374588    0.933456   -1.428344
     12          1           0        2.087795    0.729983   -1.101656
     13          1           0        1.514988   -2.539279    0.400437
     14          1           0       -0.618491   -0.095824    1.501695
     15          1           0       -0.578498   -1.793222    1.047695
     16          1           0       -1.680772   -1.172752   -1.182508
     17          1           0       -3.431237    0.468082   -0.833371
     18          1           0       -2.644789    0.996026    0.754007
     19          1           0        2.688241   -1.438193   -0.510171
 ---------------------------------------------------------------------

 SCF Done:  E(RHF) =  -272.350564640     A.U. after    2 cycles

 The electronic state is 1-A.
 Alpha  occ. eigenvalues --  -11.24235 -11.24149 -11.23730 -11.23087 -11.22918
 Alpha  occ. eigenvalues --  -11.22354 -11.22041  -1.11805  -1.05306  -0.99861
 Alpha  occ. eigenvalues --   -0.93011  -0.85730  -0.77396  -0.72268  -0.66267
 Alpha  occ. eigenvalues --   -0.64120  -0.61615  -0.60922  -0.58342  -0.55675
 Alpha  occ. eigenvalues --   -0.52681  -0.51911  -0.50001  -0.48763  -0.47860
 Alpha  occ. eigenvalues --   -0.37376  -0.35917
 Alpha virt. eigenvalues --    0.03566   0.03746   0.03814   0.04006   0.05376
 Alpha virt. eigenvalues --    0.05896   0.06154   0.06576   0.07135   0.08946
 Alpha virt. eigenvalues --    0.09325   0.09667   0.11420   0.12204   0.12468

 Mulliken charges:
               1
     1  C   -0.362742
     2  C   -0.618575
     3  C    0.494776
     4  C   -0.541069
     5  C    0.809641
     6  C   -0.185097
     7  C    0.176676
     8  H    0.096073
     9  H    0.164235
    10  H    0.140124
    11  H    0.246274
    12  H    0.050426
    13  H   -0.164889
    14  H    0.155117
    15  H    0.104895
    16  H   -0.186272
    17  H   -0.112501
    18  H   -0.099510
    19  H   -0.167583
 Sum of Mulliken charges =  -0.00000

 Dipole moment (field-independent basis, Debye):
    X=             -0.0678    Y=              0.2880    Z=             -0.0142  Tot=              0.2962

 Test job not archived.
 1\1\GINC-SE054\SP\RHF\Aug-CC-pVDZ\C7H12\OHZDE\09-Apr-2025\0\\#t hf aug
 -cc-pvdz iop(5/13=1,5/36=2,99/5=2) pseudo=read geom=check guess=(read,
 tcheck) scf=(maxcycle=1)\\title\\0,1\C,0,1.70666932,0.32214632,-1.1380
 4524\C,0,0.99120787,-0.86122292,-0.48799404\C,0,0.36763507,-0.53637495
 ,0.84459628\C,0,-0.68194232,0.55234046,0.86420748\C,0,-1.84285489,0.25
 740626,-0.04222524\C,0,-2.24236611,1.03038678,-1.03995967\C,0,0.714824
 56,-1.17741395,1.9539227\H,0,2.19306318,0.01366769,-2.06474762\H,0,2.4
 7120015,0.73052447,-0.47355095\H,0,1.00973453,1.12476894,-1.38608903\H

 Normal termination of Gaussian 16 at Wed Apr  9 03:40:29 2025.
