 Gaussian 16, Revision C.01,

 ----------------------------------------------------------------------
 #t hf aug-cc-pvdz symm=none int=(grid=ultrafine) guess=(read,tcheck) s
 table=(opt,rrhf)
 ----------------------------------------------------------------------
 -----
 title
 -----
 Symbolic Z-matrix:
 Charge =  0 Multiplicity = 1

 SCF Done:  E(RHF) =  -286.856269364     A.U. after   14 cycles
 Normal termination of Gaussian 16 at Wed Apr  9 18:12:19 2025.
 Gaussian 16:  ES64L-G16RevC.01  3-Jul-2019

 ----------------------------------------------------------------------
 #t hf aug-cc-pvdz iop(5/13=1,5/36=2,99/5=2) pseudo=read geom=check gue
 ss=(read,tcheck) scf=(maxcycle=1)
 ----------------------------------------------------------------------
 -----
 title
 -----
 Structure from the checkpoint file:  "Grambow2020_wb97xd3_007179_reverse_mol2.chk"
 Charge =  0 Multiplicity = 1

                         Standard orientation:
 ---------------------------------------------------------------------
 Center     Atomic      Atomic             Coordinates (Angstroms)
 Number     Number       Type             X           Y           Z
 ---------------------------------------------------------------------
      1          6           0       -2.498409   -0.469041    0.194580
      2          6           0       -1.058063   -0.177766   -0.030996
      3          6           0       -0.016242   -0.945580   -0.327233
      4          6           0        1.198439   -0.063512   -0.430198
      5          6           0        0.715981    1.343133   -0.128399
      6          6           0        2.377671   -0.472015    0.452208
      7          7           0       -0.574134    1.166470    0.068418
      8          1           0       -3.124661    0.047974   -0.537136
      9          1           0       -2.687978   -1.537627    0.110882
     10          1           0       -2.813113   -0.142320    1.189213
     11          1           0       -0.041014   -2.016209   -0.469260
     12          1           0        1.546434   -0.023025   -1.472624
     13          1           0        2.083599   -0.485056    1.503311
     14          1           0        2.734365   -1.469211    0.188236
     15          1           0        3.197294    0.236904    0.337755
     16          1           0       -1.192251    1.931958    0.290920
 ---------------------------------------------------------------------

 SCF Done:  E(RHF) =  -287.159443868     A.U. after    2 cycles

 The electronic state is 1-A.
 Alpha  occ. eigenvalues --  -15.54498 -11.27860 -11.25348 -11.24275 -11.23174
 Alpha  occ. eigenvalues --  -11.22496 -11.22466  -1.29151  -1.07574  -1.05218
 Alpha  occ. eigenvalues --   -0.96027  -0.89821  -0.79998  -0.79209  -0.67453
 Alpha  occ. eigenvalues --   -0.63341  -0.61538  -0.60020  -0.58375  -0.56898
 Alpha  occ. eigenvalues --   -0.55291  -0.51023  -0.50601  -0.48601  -0.35213
 Alpha  occ. eigenvalues --   -0.34845
 Alpha virt. eigenvalues --    0.03017   0.03662   0.04279   0.04503   0.05224
 Alpha virt. eigenvalues --    0.05618   0.06458   0.06944   0.08887   0.10671
 Alpha virt. eigenvalues --    0.11333   0.11496   0.12277   0.13024   0.13788

 Mulliken charges:
               1
     1  C   -0.533142
     2  C   -0.486237
     3  C    0.617755
     4  C   -0.975169
     5  C   -0.613435
     6  C   -0.125206
     7  N    0.847093
     8  H    0.217752
     9  H    0.161107
    10  H    0.205712
    11  H   -0.180578
    12  H    0.258651
    13  H    0.223610
    14  H    0.200068
    15  H    0.169681
    16  H    0.012337
 Sum of Mulliken charges =  -0.00000

 Dipole moment (field-independent basis, Debye):
    X=             -2.5193    Y=             -2.0590    Z=              0.1315  Tot=              3.2563

 Test job not archived.
 1\1\GINC-SE232\SP\RHF\Aug-CC-pVDZ\C6H9N1\OHZDE\09-Apr-2025\0\\#t hf au
 g-cc-pvdz iop(5/13=1,5/36=2,99/5=2) pseudo=read geom=check guess=(read
 ,tcheck) scf=(maxcycle=1)\\title\\0,1\C,0,-2.49599416,-0.03584018,-0.2
 2541918\C,0,-1.04322461,-0.08395056,0.08678287\C,0,-0.09638166,0.84580
 999,0.1282593\C,0,1.1964226,0.17764926,0.51076893\C,0,0.87044773,-1.29
 584667,0.66903212\C,0,2.36107343,0.41205948,-0.4508669\N,0,-0.42248033
 ,-1.33052925,0.42108503\H,0,-3.09419361,-0.36036513,0.63000097\H,0,-2.
 79564228,0.97764604,-0.48594827\H,0,-2.7379572,-0.69127679,-1.06621421

 Normal termination of Gaussian 16 at Wed Apr  9 18:12:25 2025.
