 Gaussian 16, Revision C.01,

 ----------------------------------------------------------------------
 #t hf aug-cc-pvdz symm=none int=(grid=ultrafine) guess=(read,tcheck) s
 table=(opt,rrhf)
 ----------------------------------------------------------------------
 -----
 title
 -----
 Symbolic Z-matrix:
 Charge =  0 Multiplicity = 1

 SCF Done:  E(RHF) =  -358.550110301     A.U. after   14 cycles
 Normal termination of Gaussian 16 at Wed Apr  9 03:34:07 2025.
 Gaussian 16:  ES64L-G16RevC.01  3-Jul-2019

 ----------------------------------------------------------------------
 #t hf aug-cc-pvdz iop(5/13=1,5/36=2,99/5=2) pseudo=read geom=check gue
 ss=(read,tcheck) scf=(maxcycle=1)
 ----------------------------------------------------------------------
 -----
 title
 -----
 Structure from the checkpoint file:  "Grambow2020_wb97xd3_007072_reverse_mol2.chk"
 Charge =  0 Multiplicity = 1

                         Standard orientation:
 ---------------------------------------------------------------------
 Center     Atomic      Atomic             Coordinates (Angstroms)
 Number     Number       Type             X           Y           Z
 ---------------------------------------------------------------------
      1          8           0       -2.165504   -0.353602   -0.013915
      2          6           0       -0.891406    0.038411   -0.054483
      3          7           0       -0.491151    1.215837    0.179505
      4          6           0        0.957374    1.262041   -0.028702
      5          6           0        1.391284   -0.154981   -0.352780
      6          8           0        1.097961   -1.074640    0.687670
      7          6           0        0.171433   -0.957710   -0.387075
      8          1           0       -2.697376    0.420421    0.207838
      9          1           0        1.454637    1.641212    0.866912
     10          1           0        1.187391    1.942398   -0.852750
     11          1           0        2.272666   -0.374726   -0.944455
     12          1           0       -0.011029   -1.840795   -0.985880
 ---------------------------------------------------------------------

 SCF Done:  E(RHF) =  -358.910148200     A.U. after    2 cycles

 The electronic state is 1-A.
 Alpha  occ. eigenvalues --  -20.60116 -20.57694 -15.49086 -11.35055 -11.31311
 Alpha  occ. eigenvalues --  -11.30832 -11.27332  -1.53319  -1.51863  -1.25204
 Alpha  occ. eigenvalues --   -1.00773  -0.98600  -0.85709  -0.81669  -0.76259
 Alpha  occ. eigenvalues --   -0.69672  -0.67123  -0.64400  -0.61177  -0.58358
 Alpha  occ. eigenvalues --   -0.57042  -0.54976  -0.52372  -0.46238  -0.43085
 Alpha  occ. eigenvalues --   -0.41842
 Alpha virt. eigenvalues --    0.03347   0.04149   0.04298   0.05340   0.05553
 Alpha virt. eigenvalues --    0.09382   0.09966   0.10809   0.11096   0.12586
 Alpha virt. eigenvalues --    0.13282   0.14311   0.14399   0.14975   0.15286

 Mulliken charges:
               1
     1  O   -1.330084
     2  C    0.023513
     3  N    0.807092
     4  C   -0.294023
     5  C    0.776098
     6  O   -1.339793
     7  C    0.807764
     8  H    0.311541
     9  H    0.152016
    10  H    0.107005
    11  H    0.021711
    12  H   -0.042841
 Sum of Mulliken charges =  -0.00000

 Dipole moment (field-independent basis, Debye):
    X=              0.4055    Y=             -0.0833    Z=             -2.0732  Tot=              2.1141

 Test job not archived.
 1\1\GINC-SE334\SP\RHF\Aug-CC-pVDZ\C4H5N1O2\OHZDE\09-Apr-2025\0\\#t hf
 aug-cc-pvdz iop(5/13=1,5/36=2,99/5=2) pseudo=read geom=check guess=(re
 ad,tcheck) scf=(maxcycle=1)\\title\\0,1\O,0,1.28083887,2.00905908,0.38
 262922\C,0,0.67532509,0.84646014,0.13694324\N,0,1.25902898,-0.19797747
 ,-0.27503589\C,0,0.25096723,-1.23861962,-0.48618245\C,0,-1.07321332,-0
 .65386363,-0.0324619\O,0,-1.07106539,-0.27624265,1.33565578\C,0,-0.796
 88139,0.72527546,0.36149592\H,0,2.21630805,1.89536536,0.17491258\H,0,0
 .51112573,-2.13543846,0.08056159\H,0,0.21985768,-1.50892882,-1.5448672

 Normal termination of Gaussian 16 at Wed Apr  9 03:34:11 2025.
