 Gaussian 16, Revision C.01,

 ----------------------------------------------------------------------
 #t hf aug-cc-pvdz symm=none int=(grid=ultrafine) guess=(read,tcheck) s
 table=(opt,rrhf)
 ----------------------------------------------------------------------
 -----
 title
 -----
 Symbolic Z-matrix:
 Charge =  0 Multiplicity = 1

 SCF Done:  E(RHF) =  -354.775337073     A.U. after   15 cycles
 Normal termination of Gaussian 16 at Wed Apr  9 18:36:31 2025.
 Gaussian 16:  ES64L-G16RevC.01  3-Jul-2019

 ----------------------------------------------------------------------
 #t hf aug-cc-pvdz iop(5/13=1,5/36=2,99/5=2) pseudo=read geom=check gue
 ss=(read,tcheck) scf=(maxcycle=1)
 ----------------------------------------------------------------------
 -----
 title
 -----
 Structure from the checkpoint file:  "Grambow2020_wb97xd3_007773_reverse_mol2.chk"
 Charge =  0 Multiplicity = 1

                         Standard orientation:
 ---------------------------------------------------------------------
 Center     Atomic      Atomic             Coordinates (Angstroms)
 Number     Number       Type             X           Y           Z
 ---------------------------------------------------------------------
      1          6           0        2.444088   -0.481087    0.001196
      2          6           0        1.020924   -0.055921   -0.001056
      3          7           0        0.658774    1.203252   -0.000104
      4          7           0       -0.699502    1.122236   -0.000496
      5          6           0       -1.061882   -0.161500   -0.000953
      6          8           0       -2.344565   -0.517891    0.001051
      7          7           0       -0.019867   -0.946841   -0.001966
      8          1           0        2.657877   -1.086449    0.883078
      9          1           0        3.091565    0.393582    0.002323
     10          1           0        2.660865   -1.087600   -0.879007
     11          1           0       -1.274875    1.943991    0.003700
     12          1           0       -2.373523   -1.479873    0.004339
 ---------------------------------------------------------------------

 SCF Done:  E(RHF) =  -355.137332490     A.U. after    2 cycles

 The electronic state is 1-A.
 Alpha  occ. eigenvalues --  -20.61825 -15.57928 -15.52099 -15.48903 -11.38419
 Alpha  occ. eigenvalues --  -11.29773 -11.23582  -1.55023  -1.40377  -1.21166
 Alpha  occ. eigenvalues --   -1.13877  -0.99933  -0.90329  -0.83971  -0.80702
 Alpha  occ. eigenvalues --   -0.74181  -0.70260  -0.64055  -0.59892  -0.59201
 Alpha  occ. eigenvalues --   -0.56559  -0.55854  -0.54668  -0.49597  -0.45829
 Alpha  occ. eigenvalues --   -0.38906
 Alpha virt. eigenvalues --    0.03331   0.04309   0.05085   0.05974   0.06139
 Alpha virt. eigenvalues --    0.08005   0.09831   0.10003   0.13345   0.13781
 Alpha virt. eigenvalues --    0.14659   0.15080   0.15170   0.15931   0.16296

 Mulliken charges:
               1
     1  C   -0.002666
     2  C   -1.448410
     3  N    0.194593
     4  N    0.430159
     5  C    0.158969
     6  O   -1.262443
     7  N    0.849956
     8  H    0.248839
     9  H    0.210145
    10  H    0.248220
    11  H    0.040262
    12  H    0.332376
 Sum of Mulliken charges =  -0.00000

 Dipole moment (field-independent basis, Debye):
    X=             -1.5402    Y=             -0.6939    Z=              0.0151  Tot=              1.6894

 Test job not archived.
 1\1\GINC-SE103\SP\RHF\Aug-CC-pVDZ\C3H5N3O1\OHZDE\09-Apr-2025\0\\#t hf
 aug-cc-pvdz iop(5/13=1,5/36=2,99/5=2) pseudo=read geom=check guess=(re
 ad,tcheck) scf=(maxcycle=1)\\title\\0,1\C,0,2.04852047,-0.33870116,0.1
 034665\C,0,0.56651046,-0.24075781,0.08859642\N,0,-0.2110998,-1.2190699
 5,0.48216917\N,0,-1.45618827,-0.70216027,0.29768314\C,0,-1.34923133,0.
 53537559,-0.18849067\O,0,-2.42767733,1.26647175,-0.46188874\N,0,-0.099
 15997,0.87759688,-0.33936436\H,0,2.44786513,-0.20340861,-0.90256744\H,
 0,2.35113972,-1.31377627,0.4801961\H,0,2.47442964,0.43967824,0.7377633

 Normal termination of Gaussian 16 at Wed Apr  9 18:36:35 2025.
