 Gaussian 16, Revision C.01,

 ----------------------------------------------------------------------
 #t hf aug-cc-pvdz symm=none int=(grid=ultrafine) guess=(read,tcheck) s
 table=(opt,rrhf)
 ----------------------------------------------------------------------
 -----
 title
 -----
 Symbolic Z-matrix:
 Charge =  0 Multiplicity = 1

 SCF Done:  E(RHF) =  -344.684000243     A.U. after   16 cycles

 1\1\GINC-SE113\Stability\RHF\Aug-CC-pVDZ\C5H10O2\OHZDE\09-Apr-2025\0\\
 #t hf aug-cc-pvdz symm=none int=(grid=ultrafine) guess=(read,tcheck) s
 table=(opt,rrhf)\\title\\0,1\O,0,0.45208969,-2.19080042,1.08257181\C,0
 ,1.28043699,-0.42050197,0.30288177\C,0,0.67636773,-0.18902473,-1.03512
 918\C,0,-0.68237028,0.44444261,-0.81273582\C,0,-1.10299922,-0.0360602,
 0.58411495\O,0,-0.86437523,1.27630529,1.14449426\C,0,-0.66809422,1.827
 75572,-0.1604825\H,0,0.70099921,-2.35459714,2.00014435\H,0,2.22507171,
 -0.94975598,0.33578991\H,0,1.12201431,0.31679448,1.08054076\H,0,0.5475

 Normal termination of Gaussian 16 at Wed Apr  9 18:25:36 2025.
 Gaussian 16:  ES64L-G16RevC.01  3-Jul-2019

 ----------------------------------------------------------------------
 #t hf aug-cc-pvdz iop(5/13=1,5/36=2,99/5=2) pseudo=read geom=check gue
 ss=(read,tcheck) scf=(maxcycle=1)
 ----------------------------------------------------------------------
 -----
 title
 -----
 Structure from the checkpoint file:  "Grambow2020_wb97xd3_007548_forward_mol1.chk"
 Charge =  0 Multiplicity = 1

                         Standard orientation:
 ---------------------------------------------------------------------
 Center     Atomic      Atomic             Coordinates (Angstroms)
 Number     Number       Type             X           Y           Z
 ---------------------------------------------------------------------
      1          8           0       -2.370276   -0.622902    0.224788
      2          6           0       -1.031005    0.627042   -0.810599
      3          6           0       -0.285892    1.425671    0.197247
      4          6           0        0.822335    0.545708    0.739839
      5          6           0        0.301146   -0.886147    0.547079
      6          8           0        1.225449   -1.112039   -0.542832
      7          6           0        1.888888    0.125910   -0.272795
      8          1           0       -2.812508   -1.261965   -0.346837
      9          1           0       -1.917677    1.075650   -1.241982
     10          1           0       -0.477715   -0.045374   -1.454947
     11          1           0       -0.970053    1.685617    1.008581
     12          1           0        0.024477    2.383164   -0.252445
     13          1           0        1.189630    0.869130    1.712978
     14          1           0       -1.376394   -0.941110    0.367188
     15          1           0        0.452837   -1.618758    1.348663
     16          1           0        2.876845   -0.041751    0.169632
     17          1           0        1.996336    0.745821   -1.171099
 ---------------------------------------------------------------------

 SCF Done:  E(RHF) =  -345.045465786     A.U. after    2 cycles

 The electronic state is 1-A.
 Alpha  occ. eigenvalues --  -20.54614 -20.50995 -11.36700 -11.27233 -11.26182
 Alpha  occ. eigenvalues --  -11.22478 -11.21529  -1.43773  -1.42046  -1.11221
 Alpha  occ. eigenvalues --   -0.98193  -0.89343  -0.86808  -0.72936  -0.72038
 Alpha  occ. eigenvalues --   -0.69487  -0.65468  -0.62681  -0.60881  -0.58512
 Alpha  occ. eigenvalues --   -0.56296  -0.55495  -0.52321  -0.48287  -0.46723
 Alpha  occ. eigenvalues --   -0.43934  -0.40911  -0.26593
 Alpha virt. eigenvalues --    0.02477   0.03310   0.04031   0.04411   0.05141
 Alpha virt. eigenvalues --    0.06096   0.06393   0.06729   0.07559   0.08071
 Alpha virt. eigenvalues --    0.10677   0.11793   0.12645   0.13910   0.14162

 Mulliken charges:
               1
     1  O   -1.112653
     2  C    0.323890
     3  C   -0.289232
     4  C   -0.366933
     5  C    0.418838
     6  O   -1.343087
     7  C    0.726051
     8  H    0.240430
     9  H   -0.064024
    10  H    0.215746
    11  H    0.185067
    12  H    0.154440
    13  H   -0.086556
    14  H    1.145627
    15  H   -0.202067
    16  H   -0.020320
    17  H    0.074783
 Sum of Mulliken charges =  -0.00000

 Dipole moment (field-independent basis, Debye):
    X=             -1.2992    Y=              3.2779    Z=             -1.5562  Tot=              3.8541

 Test job not archived.
 1\1\GINC-SE113\SP\RHF\Aug-CC-pVDZ\C5H10O2\OHZDE\09-Apr-2025\0\\#t hf a
 ug-cc-pvdz iop(5/13=1,5/36=2,99/5=2) pseudo=read geom=check guess=(rea
 d,tcheck) scf=(maxcycle=1)\\title\\0,1\O,0,0.45208969,-2.19080042,1.08
 257181\C,0,1.28043699,-0.42050197,0.30288177\C,0,0.67636773,-0.1890247
 3,-1.03512918\C,0,-0.68237028,0.44444261,-0.81273582\C,0,-1.10299922,-
 0.0360602,0.58411495\O,0,-0.86437523,1.27630529,1.14449426\C,0,-0.6680
 9422,1.82775572,-0.1604825\H,0,0.70099921,-2.35459714,2.00014435\H,0,2
 .22507171,-0.94975598,0.33578991\H,0,1.12201431,0.31679448,1.08054076\

 Normal termination of Gaussian 16 at Wed Apr  9 18:25:42 2025.
