 Gaussian 16, Revision C.01,

 ----------------------------------------------------------------------
 #t hf aug-cc-pvdz symm=none int=(grid=ultrafine) guess=(read,tcheck) s
 table=(opt,rrhf)
 ----------------------------------------------------------------------
 -----
 title
 -----
 Symbolic Z-matrix:
 Charge =  0 Multiplicity = 1

 SCF Done:  E(RHF) =  -284.649027478     A.U. after   16 cycles
 Normal termination of Gaussian 16 at Wed Apr  9 03:07:22 2025.
 Gaussian 16:  ES64L-G16RevC.01  3-Jul-2019

 ----------------------------------------------------------------------
 #t hf aug-cc-pvdz iop(5/13=1,5/36=2,99/5=2) pseudo=read geom=check gue
 ss=(read,tcheck) scf=(maxcycle=1)
 ----------------------------------------------------------------------
 -----
 title
 -----
 Structure from the checkpoint file:  "Grambow2020_b97d3_006563_forward_mol1.chk"
 Charge =  0 Multiplicity = 1

                         Standard orientation:
 ---------------------------------------------------------------------
 Center     Atomic      Atomic             Coordinates (Angstroms)
 Number     Number       Type             X           Y           Z
 ---------------------------------------------------------------------
      1          8           0        1.904200   -0.634401   -0.174616
      2          6           0        1.123092    0.145775    0.578845
      3          6           0        0.234664    1.152629   -0.177824
      4          7           0       -1.160779    0.690797   -0.047044
      5          6           0       -1.293820   -0.663477   -0.645376
      6          6           0       -0.992072   -0.550913    0.775659
      7          1           0        1.716433   -0.517148   -1.141379
      8          1           0        0.390655   -0.426347    1.348680
      9          1           0        0.517774    1.233728   -1.243772
     10          1           0        0.341545    2.154099    0.266971
     11          1           0       -0.515750   -1.030131   -1.331100
     12          1           0       -2.311093   -0.905371   -0.958491
     13          1           0       -1.678893   -0.773282    1.597493
 ---------------------------------------------------------------------

 SCF Done:  E(RHF) =  -284.944598565     A.U. after    2 cycles

 The electronic state is 1-A.
 Alpha  occ. eigenvalues --  -20.61414 -15.51299 -11.32837 -11.28088 -11.27712
 Alpha  occ. eigenvalues --  -11.27555  -1.52000  -1.28154  -1.02501  -0.91629
 Alpha  occ. eigenvalues --   -0.85295  -0.80404  -0.72256  -0.69715  -0.65635
 Alpha  occ. eigenvalues --   -0.63855  -0.59291  -0.56891  -0.53403  -0.50248
 Alpha  occ. eigenvalues --   -0.47823  -0.42578  -0.30969
 Alpha virt. eigenvalues --    0.03243   0.04230   0.04692   0.04878   0.05554
 Alpha virt. eigenvalues --    0.06618   0.06953   0.08646   0.09534   0.10976
 Alpha virt. eigenvalues --    0.12958   0.13767   0.14045   0.14431   0.14777

 Mulliken charges:
               1
     1  O   -1.183088
     2  C    0.941615
     3  C   -0.559153
     4  N    0.298312
     5  C    0.196485
     6  C   -0.297199
     7  H    0.387980
     8  H    0.488080
     9  H    0.090783
    10  H    0.072839
    11  H   -0.127058
    12  H   -0.084530
    13  H   -0.225068
 Sum of Mulliken charges =   0.00000

 Dipole moment (field-independent basis, Debye):
    X=              0.3344    Y=             -0.7381    Z=             -1.9309  Tot=              2.0940

 Test job not archived.
 1\1\GINC-SE164\SP\RHF\Aug-CC-pVDZ\C4H7N1O1\OHZDE\09-Apr-2025\0\\#t hf
 aug-cc-pvdz iop(5/13=1,5/36=2,99/5=2) pseudo=read geom=check guess=(re
 ad,tcheck) scf=(maxcycle=1)\\title\\0,1\O,0,-1.58238735,-0.75110476,1.
 19150504\C,0,-1.4017799,0.07939109,0.15992134\C,0,-0.28588675,1.130474
 24,0.31996482\N,0,0.80746355,0.75213969,-0.59606023\C,0,1.31555549,-0.
 59673109,-0.23253511\C,0,0.25614034,-0.49075222,-1.22725792\H,0,-0.884
 51678,-0.63073507,1.88585592\H,0,-1.21140107,-0.44276956,-0.91131039\H
 ,0,0.08267461,1.18641318,1.3611216\H,0,-0.66992767,2.12746995,0.054031

 Normal termination of Gaussian 16 at Wed Apr  9 03:07:26 2025.
