 Gaussian 16, Revision C.01,

 ----------------------------------------------------------------------
 #t hf aug-cc-pvdz symm=none int=(grid=ultrafine) guess=(read,tcheck) s
 table=(opt,rrhf)
 ----------------------------------------------------------------------
 -----
 title
 -----
 Symbolic Z-matrix:
 Charge =  0 Multiplicity = 1

 SCF Done:  E(RHF) =  -340.470636889     A.U. after   13 cycles
 Normal termination of Gaussian 16 at Wed Apr  9 03:20:24 2025.
 Gaussian 16:  ES64L-G16RevC.01  3-Jul-2019

 ----------------------------------------------------------------------
 #t hf aug-cc-pvdz iop(5/13=1,5/36=2,99/5=2) pseudo=read geom=check gue
 ss=(read,tcheck) scf=(maxcycle=1)
 ----------------------------------------------------------------------
 -----
 title
 -----
 Structure from the checkpoint file:  "Grambow2020_wb97xd3_006044_reverse_mol2.chk"
 Charge =  0 Multiplicity = 1

                         Standard orientation:
 ---------------------------------------------------------------------
 Center     Atomic      Atomic             Coordinates (Angstroms)
 Number     Number       Type             X           Y           Z
 ---------------------------------------------------------------------
      1          8           0        1.727908   -0.456532    0.299081
      2          6           0        0.469575   -0.085152    0.036039
      3          8           0        0.217277    1.100943   -0.654435
      4          6           0       -0.559841    0.804399    0.546192
      5          6           0       -1.528136   -0.280516    0.116336
      6          8           0       -0.413185   -1.091788   -0.355719
      7          1           0        2.321445    0.200762   -0.073385
      8          1           0       -0.617685    1.554802    1.319291
      9          1           0       -2.035316   -0.775236    0.944831
     10          1           0       -2.214027   -0.033695   -0.693556
 ---------------------------------------------------------------------

 SCF Done:  E(RHF) =  -340.807973899     A.U. after    2 cycles

 The electronic state is 1-A.
 Alpha  occ. eigenvalues --  -20.59625 -20.57729 -20.56610 -11.41666 -11.31190
 Alpha  occ. eigenvalues --  -11.31132  -1.59089  -1.49956  -1.45487  -1.02000
 Alpha  occ. eigenvalues --   -0.92402  -0.81343  -0.78310  -0.72716  -0.68687
 Alpha  occ. eigenvalues --   -0.66567  -0.60111  -0.56267  -0.55368  -0.53743
 Alpha  occ. eigenvalues --   -0.49320  -0.45816  -0.40532
 Alpha virt. eigenvalues --    0.03219   0.04107   0.04737   0.05119   0.08634
 Alpha virt. eigenvalues --    0.10690   0.10907   0.11445   0.11807   0.13955
 Alpha virt. eigenvalues --    0.14393   0.15617   0.17016   0.17718   0.20761

 Mulliken charges:
               1
     1  O   -1.233566
     2  C    2.593110
     3  O   -1.320135
     4  C    0.544080
     5  C    0.501202
     6  O   -1.355494
     7  H    0.149957
     8  H   -0.080358
     9  H    0.100973
    10  H    0.100231
 Sum of Mulliken charges =   0.00000

 Dipole moment (field-independent basis, Debye):
    X=             -0.8067    Y=              1.7256    Z=              1.6218  Tot=              2.5017

 Test job not archived.
 1\1\GINC-SE105\SP\RHF\Aug-CC-pVDZ\C3H4O3\OHZDE\09-Apr-2025\0\\#t hf au
 g-cc-pvdz iop(5/13=1,5/36=2,99/5=2) pseudo=read geom=check guess=(read
 ,tcheck) scf=(maxcycle=1)\\title\\0,1\O,0,1.55514735,0.87939868,1.0728
 4732\C,0,0.67461847,0.28219043,0.26135032\O,0,0.50492022,0.73686179,-1
 .04697143\C,0,-0.67861504,0.45807892,-0.23772523\C,0,-0.75666241,-1.05
 532358,-0.18356999\O,0,0.60932168,-1.10998722,0.32161563\H,0,1.9869793
 9,1.58479041,0.58397432\H,0,-1.43774397,1.22060968,-0.15771057\H,0,-1.
 45426005,-1.43648585,0.56239061\H,0,-0.85191364,-1.57642426,-1.1357639

 Normal termination of Gaussian 16 at Wed Apr  9 03:20:27 2025.
