 Gaussian 16, Revision C.01,

 ----------------------------------------------------------------------
 #t hf aug-cc-pvdz symm=none int=(grid=ultrafine) guess=(read,tcheck) s
 table=(opt,rrhf)
 ----------------------------------------------------------------------
 -----
 title
 -----
 Symbolic Z-matrix:
 Charge =  0 Multiplicity = 1

 SCF Done:  E(RHF) =  -322.519604098     A.U. after   17 cycles
 Normal termination of Gaussian 16 at Wed Apr  9 18:01:08 2025.
 Gaussian 16:  ES64L-G16RevC.01  3-Jul-2019

 ----------------------------------------------------------------------
 #t hf aug-cc-pvdz iop(5/13=1,5/36=2,99/5=2) pseudo=read geom=check gue
 ss=(read,tcheck) scf=(maxcycle=1)
 ----------------------------------------------------------------------
 -----
 title
 -----
 Structure from the checkpoint file:  "Grambow2020_wb97xd3_006938_forward_mol1.chk"
 Charge =  0 Multiplicity = 1

                         Standard orientation:
 ---------------------------------------------------------------------
 Center     Atomic      Atomic             Coordinates (Angstroms)
 Number     Number       Type             X           Y           Z
 ---------------------------------------------------------------------
      1          8           0        1.822554    0.691407   -0.018599
      2          6           0        1.574998   -0.489510    0.340247
      3          7           0        0.949740   -1.380659   -0.387619
      4          6           0       -1.248082   -1.067550    0.174181
      5          6           0       -2.164867    0.071943    0.026368
      6          6           0       -0.972666    0.902270   -0.076212
      7          6           0        0.023751    1.613983   -0.078580
      8          1           0        1.796264   -0.782980    1.377361
      9          1           0        0.832665   -0.976508   -1.317769
     10          1           0       -0.971586   -1.385149    1.166718
     11          1           0       -1.203415   -1.820589   -0.592936
     12          1           0       -2.764073    0.068366   -0.881101
     13          1           0       -2.770713    0.316734    0.897496
     14          1           0        0.573435    2.526669   -0.103677
 ---------------------------------------------------------------------

 SCF Done:  E(RHF) =  -322.848616673     A.U. after    2 cycles

 The electronic state is 1-A.
 Alpha  occ. eigenvalues --  -20.50280 -15.46431 -11.35552 -11.30278 -11.30183
 Alpha  occ. eigenvalues --  -11.28834 -11.25514  -1.42533  -1.16494  -1.14438
 Alpha  occ. eigenvalues --   -1.01898  -0.89465  -0.80574  -0.75355  -0.71062
 Alpha  occ. eigenvalues --   -0.69163  -0.64681  -0.63414  -0.60787  -0.58373
 Alpha  occ. eigenvalues --   -0.56391  -0.47047  -0.43372  -0.40266  -0.37465
 Alpha  occ. eigenvalues --   -0.35386
 Alpha virt. eigenvalues --    0.02052   0.02542   0.03502   0.04474   0.05023
 Alpha virt. eigenvalues --    0.06222   0.07153   0.07245   0.08995   0.10726
 Alpha virt. eigenvalues --    0.12590   0.12763   0.12974   0.13443   0.14169

 Mulliken charges:
               1
     1  O   -1.165080
     2  C    0.120496
     3  N    0.275351
     4  C    0.286477
     5  C   -0.323099
     6  C    0.097389
     7  C    0.509920
     8  H    0.017190
     9  H    0.125064
    10  H    0.025742
    11  H    0.048571
    12  H    0.163895
    13  H    0.158722
    14  H   -0.340637
 Sum of Mulliken charges =  -0.00000

 Dipole moment (field-independent basis, Debye):
    X=             -5.5067    Y=              0.0825    Z=              0.8531  Tot=              5.5730

 Test job not archived.
 1\1\GINC-SE114\SP\RHF\Aug-CC-pVDZ\C5H7N1O1\OHZDE\09-Apr-2025\0\\#t hf
 aug-cc-pvdz iop(5/13=1,5/36=2,99/5=2) pseudo=read geom=check guess=(re
 ad,tcheck) scf=(maxcycle=1)\\title\\0,1\O,0,-0.45549014,2.18475384,-0.
 07886802\C,0,-1.3406347,1.42160464,0.38882979\N,0,-1.2204682,0.7139055
 7,1.48409469\C,0,-0.33637673,-1.2620065,0.73694708\C,0,0.92986036,-1.6
 0248534,0.07248795\C,0,0.99819973,-0.20081843,-0.31734293\C,0,1.018104
 62,0.95595871,-0.71841323\H,0,-2.2476469,1.23867296,-0.20661538\H,0,-0
 .35026742,1.00401575,1.932213\H,0,-1.25852836,-1.39364504,0.19403241\H

 Normal termination of Gaussian 16 at Wed Apr  9 18:01:13 2025.
