 Gaussian 16, Revision C.01,

 ----------------------------------------------------------------------
 #t hf aug-cc-pvdz symm=none int=(grid=ultrafine) guess=(read,tcheck) s
 table=(opt,rrhf)
 ----------------------------------------------------------------------
 -----
 title
 -----
 Symbolic Z-matrix:
 Charge =  0 Multiplicity = 1

 SCF Done:  E(RHF) =  -320.543495335     A.U. after   17 cycles
 Normal termination of Gaussian 16 at Wed Apr  9 16:05:44 2025.
 Gaussian 16:  ES64L-G16RevC.01  3-Jul-2019

 ----------------------------------------------------------------------
 #t hf aug-cc-pvdz iop(5/13=1,5/36=2,99/5=2) pseudo=read geom=check gue
 ss=(read,tcheck) scf=(maxcycle=1)
 ----------------------------------------------------------------------
 -----
 title
 -----
 Structure from the checkpoint file:  "Grambow2020_b97d3_007121_forward_mol1.chk"
 Charge =  0 Multiplicity = 1

                         Standard orientation:
 ---------------------------------------------------------------------
 Center     Atomic      Atomic             Coordinates (Angstroms)
 Number     Number       Type             X           Y           Z
 ---------------------------------------------------------------------
      1          6           0        2.237725   -0.635614   -0.010119
      2          7           0        0.712140   -0.631002    0.077109
      3          6           0       -0.109318    0.560655   -0.012140
      4          8           0        0.389196    1.682267    0.002176
      5          6           0       -1.558275    0.209051   -0.030547
      6          8           0       -1.970651   -0.953050   -0.015316
      7          1           0        1.120098   -0.826425    1.078969
      8          1           0        2.579012   -1.400975   -0.705470
      9          1           0        2.573549    0.389588   -0.153525
     10          1           0        0.202061   -1.472522   -0.221002
     11          1           0       -2.228852    1.089064   -0.116783
 ---------------------------------------------------------------------

 SCF Done:  E(RHF) =  -320.863802344     A.U. after    2 cycles

 The electronic state is 1-A.
 Alpha  occ. eigenvalues --  -20.62617 -20.60737 -15.61100 -11.42826 -11.41239
 Alpha  occ. eigenvalues --  -11.21750  -1.53707  -1.52162  -1.29991  -1.03377
 Alpha  occ. eigenvalues --   -0.91422  -0.84660  -0.78193  -0.75723  -0.73039
 Alpha  occ. eigenvalues --   -0.68496  -0.63123  -0.58528  -0.55213  -0.54121
 Alpha  occ. eigenvalues --   -0.53667  -0.47892  -0.28432
 Alpha virt. eigenvalues --   -0.00023   0.02885   0.03877   0.05479   0.06293
 Alpha virt. eigenvalues --    0.07250   0.07878   0.09690   0.10150   0.11454
 Alpha virt. eigenvalues --    0.12531   0.13458   0.14643   0.15543   0.16141

 Mulliken charges:
               1
     1  C   -0.481755
     2  N    0.131410
     3  C    0.650681
     4  O   -1.188071
     5  C    1.062394
     6  O   -1.143174
     7  H    0.588406
     8  H   -0.021487
     9  H   -0.015643
    10  H    0.211614
    11  H    0.205624
 Sum of Mulliken charges =  -0.00000

 Dipole moment (field-independent basis, Debye):
    X=             -3.5850    Y=             -0.1391    Z=             -0.5334  Tot=              3.6271

 Test job not archived.
 1\1\GINC-SE229\SP\RHF\Aug-CC-pVDZ\C3H5N1O2\OHZDE\09-Apr-2025\0\\#t hf
 aug-cc-pvdz iop(5/13=1,5/36=2,99/5=2) pseudo=read geom=check guess=(re
 ad,tcheck) scf=(maxcycle=1)\\title\\0,1\C,0,-1.09081948,1.58965283,0.0
 286901\N,0,0.01625709,0.54724678,0.17972617\C,0,-0.12592169,-0.8538621
 3,-0.16593938\O,0,-1.21908497,-1.33295797,-0.45263667\C,0,1.17482512,-
 1.57051339,-0.03211047\O,0,2.22451203,-1.00877499,0.28940294\H,0,-0.35
 883562,0.80784192,1.17959576\H,0,-0.71202304,2.48083895,-0.46937394\H,
 0,-1.97031163,1.09540941,-0.37947473\H,0,0.99417038,0.85973582,0.12278

 Normal termination of Gaussian 16 at Wed Apr  9 16:05:47 2025.
