 Gaussian 16, Revision C.01,

 ----------------------------------------------------------------------
 #t hf aug-cc-pvdz symm=none int=(grid=ultrafine) guess=(read,tcheck) s
 table=(opt,rrhf)
 ----------------------------------------------------------------------
 -----
 title
 -----
 Symbolic Z-matrix:
 Charge =  0 Multiplicity = 1

 SCF Done:  E(RHF) =  -268.756824299     A.U. after   16 cycles
 Normal termination of Gaussian 16 at Wed Apr  9 16:00:54 2025.
 Gaussian 16:  ES64L-G16RevC.01  3-Jul-2019

 ----------------------------------------------------------------------
 #t hf aug-cc-pvdz iop(5/13=1,5/36=2,99/5=2) pseudo=read geom=check gue
 ss=(read,tcheck) scf=(maxcycle=1)
 ----------------------------------------------------------------------
 -----
 title
 -----
 Structure from the checkpoint file:  "Grambow2020_b97d3_007085_reverse_mol2.chk"
 Charge =  0 Multiplicity = 1

                         Standard orientation:
 ---------------------------------------------------------------------
 Center     Atomic      Atomic             Coordinates (Angstroms)
 Number     Number       Type             X           Y           Z
 ---------------------------------------------------------------------
      1          6           0       -1.843658   -0.629715    0.125290
      2          6           0       -0.436149   -1.081054   -0.245766
      3          6           0        0.648507   -0.182833    0.349820
      4          8           0        1.892022   -0.604822   -0.194193
      5          6           0       -0.781941    1.917871   -0.221506
      6          6           0        0.349088    1.298296    0.043905
      7          1           0       -2.020321   -0.667485    1.208837
      8          1           0       -2.609001   -1.231696   -0.381996
      9          1           0       -2.012061    0.427382   -0.200123
     10          1           0       -0.307384   -1.074326   -1.337111
     11          1           0       -0.251458   -2.107586    0.103073
     12          1           0        0.650561   -0.281533    1.451998
     13          1           0        2.603372   -0.160666    0.303147
     14          1           0        1.195043    1.999089    0.095267
 ---------------------------------------------------------------------

 SCF Done:  E(RHF) =  -269.035097339     A.U. after    2 cycles

 The electronic state is 1-A.
 Alpha  occ. eigenvalues --  -20.57023 -11.32513 -11.29935 -11.24866 -11.24309
 Alpha  occ. eigenvalues --  -11.24092  -1.46763  -1.10386  -1.02800  -0.93307
 Alpha  occ. eigenvalues --   -0.82661  -0.72430  -0.71018  -0.67199  -0.61363
 Alpha  occ. eigenvalues --   -0.57225  -0.55998  -0.53025  -0.51462  -0.49896
 Alpha  occ. eigenvalues --   -0.47650  -0.43976  -0.39937
 Alpha virt. eigenvalues --    0.02807   0.03635   0.04347   0.04551   0.05860
 Alpha virt. eigenvalues --    0.06712   0.06757   0.07238   0.08243   0.12052
 Alpha virt. eigenvalues --    0.12209   0.12612   0.13106   0.14694   0.14949

 Mulliken charges:
               1
     1  C   -0.317845
     2  C   -0.432554
     3  C    0.821865
     4  O   -1.366350
     5  C   -0.582866
     6  C    0.608311
     7  H    0.174609
     8  H    0.166568
     9  H    0.169419
    10  H    0.155043
    11  H    0.187820
    12  H    0.224383
    13  H    0.289003
    14  H   -0.097407
 Sum of Mulliken charges =   0.00000

 Dipole moment (field-independent basis, Debye):
    X=              1.5904    Y=             -0.9717    Z=              1.7723  Tot=              2.5719

 Test job not archived.
 1\1\GINC-SE092\SP\RHF\Aug-CC-pVDZ\C5H8O1\OHZDE\09-Apr-2025\0\\#t hf au
 g-cc-pvdz iop(5/13=1,5/36=2,99/5=2) pseudo=read geom=check guess=(read
 ,tcheck) scf=(maxcycle=1)\\title\\0,1\C,0,-1.34965545,1.00391467,-0.28
 468886\C,0,-0.88725369,-0.38349216,0.14397996\C,0,0.62033788,-0.454119
 96,0.38930008\O,0,0.94702793,-1.81787258,0.62126563\C,0,1.0298156,1.01
 071452,-1.72544393\C,0,1.3892793,0.13539434,-0.80994259\H,0,-1.1613594
 8,1.76202957,0.48765539\H,0,-2.41713889,1.01377941,-0.54130859\H,0,-0.
 80441103,1.32865052,-1.20608024\H,0,-1.13040914,-1.12416615,-0.6305754

 Normal termination of Gaussian 16 at Wed Apr  9 16:00:58 2025.
