 Gaussian 16, Revision C.01,

 ----------------------------------------------------------------------
 #t hf aug-cc-pvdz symm=none int=(grid=ultrafine) guess=(read,tcheck) s
 table=(opt,rrhf)
 ----------------------------------------------------------------------
 -----
 title
 -----
 Symbolic Z-matrix:
 Charge =  0 Multiplicity = 1

 SCF Done:  E(RHF) =  -307.815826239     A.U. after   15 cycles

 1\1\GINC-SE229\Stability\RHF\Aug-CC-pVDZ\C6H10O1\OHZDE\09-Apr-2025\0\\
 #t hf aug-cc-pvdz symm=none int=(grid=ultrafine) guess=(read,tcheck) s
 table=(opt,rrhf)\\title\\0,1\C,0,1.80683717,0.31402836,-0.37710767\C,0
 ,0.60755173,-0.5633738,-0.03568007\C,0,0.13934522,-0.36248933,1.418227
 72\C,0,-0.92043592,0.6572963,1.50518453\O,0,-1.46683401,-1.34300569,-0
 .89453361\C,0,-1.29635501,0.88272027,0.08647689\C,0,-0.6515403,-0.1821
 1984,-0.81432423\H,0,2.66721594,0.04559527,0.23843235\H,0,1.60005634,1
 .37313224,-0.19987094\H,0,2.09586003,0.1996468,-1.42353905\H,0,0.85057

 Normal termination of Gaussian 16 at Wed Apr  9 19:08:06 2025.
 Gaussian 16:  ES64L-G16RevC.01  3-Jul-2019

 ----------------------------------------------------------------------
 #t hf aug-cc-pvdz iop(5/13=1,5/36=2,99/5=2) pseudo=read geom=check gue
 ss=(read,tcheck) scf=(maxcycle=1)
 ----------------------------------------------------------------------
 -----
 title
 -----
 Structure from the checkpoint file:  "Grambow2020_wb97xd3_008619_reverse_mol2.chk"
 Charge =  0 Multiplicity = 1

                         Standard orientation:
 ---------------------------------------------------------------------
 Center     Atomic      Atomic             Coordinates (Angstroms)
 Number     Number       Type             X           Y           Z
 ---------------------------------------------------------------------
      1          6           0       -1.948871   -0.688535    0.442222
      2          6           0       -0.708315   -0.474403   -0.417931
      3          6           0       -0.568999    0.989398   -0.877599
      4          6           0        0.268645    1.766939    0.052156
      5          8           0        1.593139   -1.043014   -0.586820
      6          6           0        0.867565    0.726356    0.925852
      7          6           0        0.595365   -0.674076    0.355053
      8          1           0       -2.854463   -0.483093   -0.131271
      9          1           0       -1.960000   -0.026620    1.312634
     10          1           0       -2.007810   -1.717195    0.802806
     11          1           0       -0.728849   -1.165468   -1.262822
     12          1           0       -1.474833    1.490844   -1.222448
     13          1           0        0.135627    1.041609   -1.733457
     14          1           0        2.447501   -1.040590   -0.151572
     15          1           0        1.896708    0.924188    1.235728
     16          1           0        0.263854    0.891605    1.836881
     17          1           0        0.504818   -1.445243    1.129568
 ---------------------------------------------------------------------

 SCF Done:  E(RHF) =  -308.140424546     A.U. after    2 cycles

 The electronic state is 1-A.
 Alpha  occ. eigenvalues --  -20.55373 -11.29037 -11.26028 -11.23966 -11.23735
 Alpha  occ. eigenvalues --  -11.23349 -11.23323  -1.45839  -1.14746  -1.01904
 Alpha  occ. eigenvalues --   -0.97084  -0.90841  -0.77877  -0.73864  -0.69783
 Alpha  occ. eigenvalues --   -0.67184  -0.63253  -0.60812  -0.57014  -0.56205
 Alpha  occ. eigenvalues --   -0.53435  -0.51314  -0.50399  -0.48753  -0.46934
 Alpha  occ. eigenvalues --   -0.45124  -0.34822
 Alpha virt. eigenvalues --    0.03170   0.03500   0.03974   0.04364   0.05885
 Alpha virt. eigenvalues --    0.06140   0.06361   0.06796   0.07984   0.09017
 Alpha virt. eigenvalues --    0.09942   0.10218   0.12813   0.13598   0.14446

 Mulliken charges:
               1
     1  C   -0.162073
     2  C   -0.867713
     3  C   -0.109232
     4  C   -0.478058
     5  O   -1.457456
     6  C   -0.408907
     7  C    1.546989
     8  H    0.126483
     9  H    0.221991
    10  H    0.141277
    11  H    0.143804
    12  H    0.101272
    13  H    0.364765
    14  H    0.270987
    15  H    0.091973
    16  H    0.329615
    17  H    0.144282
 Sum of Mulliken charges =  -0.00000

 Dipole moment (field-independent basis, Debye):
    X=             -0.1743    Y=             -2.0499    Z=              1.2624  Tot=              2.4137

 Test job not archived.
 1\1\GINC-SE229\SP\RHF\Aug-CC-pVDZ\C6H10O1\OHZDE\09-Apr-2025\0\\#t hf a
 ug-cc-pvdz iop(5/13=1,5/36=2,99/5=2) pseudo=read geom=check guess=(rea
 d,tcheck) scf=(maxcycle=1)\\title\\0,1\C,0,1.80683717,0.31402836,-0.37
 710767\C,0,0.60755173,-0.5633738,-0.03568007\C,0,0.13934522,-0.3624893
 3,1.41822772\C,0,-0.92043592,0.6572963,1.50518453\O,0,-1.46683401,-1.3
 4300569,-0.89453361\C,0,-1.29635501,0.88272027,0.08647689\C,0,-0.65154
 03,-0.18211984,-0.81432423\H,0,2.66721594,0.04559527,0.23843235\H,0,1.
 60005634,1.37313224,-0.19987094\H,0,2.09586003,0.1996468,-1.42353905\H

 Normal termination of Gaussian 16 at Wed Apr  9 19:08:12 2025.
