 Gaussian 16, Revision C.01,

 ----------------------------------------------------------------------
 #t hf aug-cc-pvdz symm=none int=(grid=ultrafine) guess=(read,tcheck) s
 table=(opt,rrhf)
 ----------------------------------------------------------------------
 -----
 title
 -----
 Symbolic Z-matrix:
 Charge =  0 Multiplicity = 1

 SCF Done:  E(RHF) =  -354.639977448     A.U. after   15 cycles
 Normal termination of Gaussian 16 at Wed Apr  9 03:40:12 2025.
 Gaussian 16:  ES64L-G16RevC.01  3-Jul-2019

 ----------------------------------------------------------------------
 #t hf aug-cc-pvdz iop(5/13=1,5/36=2,99/5=2) pseudo=read geom=check gue
 ss=(read,tcheck) scf=(maxcycle=1)
 ----------------------------------------------------------------------
 -----
 title
 -----
 Structure from the checkpoint file:  "Grambow2020_wb97xd3_007465_reverse_mol1.chk"
 Charge =  0 Multiplicity = 1

                         Standard orientation:
 ---------------------------------------------------------------------
 Center     Atomic      Atomic             Coordinates (Angstroms)
 Number     Number       Type             X           Y           Z
 ---------------------------------------------------------------------
      1          7           0       -2.247227   -0.643479   -0.133394
      2          6           0       -1.184832    0.123524    0.123281
      3          6           0       -0.591125    1.330164    0.089521
      4          7           0        0.830178    1.111803   -0.012089
      5          6           0        1.176891   -0.185299   -0.053012
      6          8           0        2.244945   -0.723301   -0.124260
      7          7           0       -0.112731   -0.891850    0.158495
      8          1           0       -3.081056   -0.185794   -0.467826
      9          1           0       -1.022944   -1.425144   -0.459499
     10          1           0       -1.010398    2.294593   -0.132921
     11          1           0        1.528010    1.831789   -0.048961
     12          1           0       -0.070319   -1.374686    1.053459
 ---------------------------------------------------------------------

 SCF Done:  E(RHF) =  -354.997526764     A.U. after    2 cycles

 The electronic state is 1-A.
 Alpha  occ. eigenvalues --  -20.54602 -15.59619 -15.56075 -15.46320 -11.42309
 Alpha  occ. eigenvalues --  -11.32838 -11.26491  -1.50742  -1.35978  -1.25713
 Alpha  occ. eigenvalues --   -1.15586  -1.01629  -0.91968  -0.86268  -0.77728
 Alpha  occ. eigenvalues --   -0.74225  -0.71660  -0.68555  -0.65363  -0.62763
 Alpha  occ. eigenvalues --   -0.59981  -0.53117  -0.50185  -0.46897  -0.46231
 Alpha  occ. eigenvalues --   -0.30784
 Alpha virt. eigenvalues --    0.02715   0.04187   0.04828   0.05554   0.06701
 Alpha virt. eigenvalues --    0.09047   0.09676   0.10624   0.10806   0.11259
 Alpha virt. eigenvalues --    0.12549   0.13037   0.13513   0.14647   0.15652

 Mulliken charges:
               1
     1  N    0.479642
     2  C   -1.544160
     3  C    0.314005
     4  N    0.530835
     5  C    0.398723
     6  O   -1.132531
     7  N    0.034512
     8  H    0.055888
     9  H    0.606770
    10  H   -0.152244
    11  H    0.033821
    12  H    0.374740
 Sum of Mulliken charges =  -0.00000

 Dipole moment (field-independent basis, Debye):
    X=             -0.1273    Y=              2.1810    Z=              0.2102  Tot=              2.1948

 Test job not archived.
 1\1\GINC-SE402\SP\RHF\Aug-CC-pVDZ\C3H5N3O1\OHZDE\09-Apr-2025\0\\#t hf
 aug-cc-pvdz iop(5/13=1,5/36=2,99/5=2) pseudo=read geom=check guess=(re
 ad,tcheck) scf=(maxcycle=1)\\title\\0,1\N,0,2.06664288,-0.23924212,-0.
 13898316\C,0,0.80777936,0.16108186,-0.33357196\C,0,-0.08054068,1.15985
 54,-0.4850501\N,0,-1.35194195,0.68765281,0.00349055\C,0,-1.31846968,-0
 .57129017,0.47071823\O,0,-2.17218276,-1.27313029,0.9331626\N,0,0.06399
 502,-1.01646053,0.15816466\H,0,2.78551753,0.4676983,-0.14570828\H,0,1.
 17257887,-1.11827182,0.66361877\H,0,0.0883348,2.21085549,-0.63429511\H

 Normal termination of Gaussian 16 at Wed Apr  9 03:40:16 2025.
