 Gaussian 16, Revision C.01,

 ----------------------------------------------------------------------
 #t hf aug-cc-pvdz symm=none int=(grid=ultrafine) guess=(read,tcheck) s
 table=(opt,rrhf)
 ----------------------------------------------------------------------
 -----
 title
 -----
 Symbolic Z-matrix:
 Charge =  0 Multiplicity = 1

 SCF Done:  E(RHF) =  -308.974321641     A.U. after   15 cycles

 1\1\GINC-SE338\Stability\RHF\Aug-CC-pVDZ\C6H12O1\OHZDE\09-Apr-2025\0\\
 #t hf aug-cc-pvdz symm=none int=(grid=ultrafine) guess=(read,tcheck) s
 table=(opt,rrhf)\\title\\0,1\C,0,1.53407439,1.24667086,0.32530766\C,0,
 0.8945139,-0.16073129,0.1750509\C,0,1.90938384,-1.14240784,-0.39876249
 \C,0,-0.21318168,0.14477353,-0.74205779\C,0,-2.3769651,-0.76640853,-0.
 50387988\C,0,-1.50704429,0.43978051,-0.10781275\O,0,-1.61238137,0.5509
 7961,1.31484125\H,0,0.84883844,1.9877778,0.74184978\H,0,2.38378435,1.1
 5971949,1.00348505\H,0,1.89099058,1.61636544,-0.63629398\H,0,0.5685706

 Normal termination of Gaussian 16 at Wed Apr  9 03:53:01 2025.
 Gaussian 16:  ES64L-G16RevC.01  3-Jul-2019

 ----------------------------------------------------------------------
 #t hf aug-cc-pvdz iop(5/13=1,5/36=2,99/5=2) pseudo=read geom=check gue
 ss=(read,tcheck) scf=(maxcycle=1)
 ----------------------------------------------------------------------
 -----
 title
 -----
 Structure from the checkpoint file:  "Grambow2020_wb97xd3_008289_reverse_mol2.chk"
 Charge =  0 Multiplicity = 1

                         Standard orientation:
 ---------------------------------------------------------------------
 Center     Atomic      Atomic             Coordinates (Angstroms)
 Number     Number       Type             X           Y           Z
 ---------------------------------------------------------------------
      1          6           0       -1.693823    1.202428    0.377575
      2          6           0       -1.071260   -0.075770   -0.247741
      3          6           0       -2.115650   -1.182370   -0.334906
      4          6           0        0.000830   -0.352439    0.719465
      5          6           0        2.165651   -1.046051    0.085912
      6          6           0        1.321333    0.204541    0.388679
      7          8           0        1.484701    1.072013   -0.737469
      8          1           0       -0.986904    2.031030    0.454909
      9          1           0       -2.516150    1.524197   -0.262530
     10          1           0       -2.086433    0.996510    1.373665
     11          1           0       -0.707746    0.192859   -1.248252
     12          1           0       -2.947080   -0.882334   -0.978279
     13          1           0       -2.502577   -1.420800    0.657268
     14          1           0       -1.680905   -2.092184   -0.751712
     15          1           0        2.250511   -1.685711    0.960652
     16          1           0        3.152704   -0.710328   -0.230597
     17          1           0        1.724505   -1.616841   -0.733596
     18          1           0        1.739253    0.682724    1.284431
     19          1           0        1.040724    1.902739   -0.560111
 ---------------------------------------------------------------------

 SCF Done:  E(RHF) =  -309.304183314     A.U. after    2 cycles

 The electronic state is 1-A.
 Alpha  occ. eigenvalues --  -20.54888 -11.29089 -11.25561 -11.24743 -11.23929
 Alpha  occ. eigenvalues --  -11.23602 -11.22340  -1.45151  -1.11055  -1.04185
 Alpha  occ. eigenvalues --   -0.94238  -0.91094  -0.82841  -0.73980  -0.69611
 Alpha  occ. eigenvalues --   -0.66988  -0.61847  -0.58916  -0.57027  -0.55385
 Alpha  occ. eigenvalues --   -0.55181  -0.54437  -0.52961  -0.50609  -0.49401
 Alpha  occ. eigenvalues --   -0.48287  -0.44207  -0.34680
 Alpha virt. eigenvalues --    0.03139   0.03519   0.03986   0.04269   0.05794
 Alpha virt. eigenvalues --    0.05876   0.06467   0.06652   0.07219   0.08707
 Alpha virt. eigenvalues --    0.08983   0.09493   0.09766   0.12599   0.13098

 Mulliken charges:
               1
     1  C   -0.077307
     2  C   -1.079041
     3  C   -0.072456
     4  C   -0.102726
     5  C   -0.363407
     6  C    0.735188
     7  O   -1.378475
     8  H    0.065877
     9  H    0.169292
    10  H    0.269693
    11  H    0.155662
    12  H    0.187192
    13  H    0.257207
    14  H    0.174753
    15  H    0.229355
    16  H    0.150560
    17  H    0.184487
    18  H    0.171834
    19  H    0.322314
 Sum of Mulliken charges =  -0.00000

 Dipole moment (field-independent basis, Debye):
    X=             -0.6255    Y=              1.3244    Z=             -0.3040  Tot=              1.4959

 Test job not archived.
 1\1\GINC-SE338\SP\RHF\Aug-CC-pVDZ\C6H12O1\OHZDE\09-Apr-2025\0\\#t hf a
 ug-cc-pvdz iop(5/13=1,5/36=2,99/5=2) pseudo=read geom=check guess=(rea
 d,tcheck) scf=(maxcycle=1)\\title\\0,1\C,0,1.53407439,1.24667086,0.325
 30766\C,0,0.8945139,-0.16073129,0.1750509\C,0,1.90938384,-1.14240784,-
 0.39876249\C,0,-0.21318168,0.14477353,-0.74205779\C,0,-2.3769651,-0.76
 640853,-0.50387988\C,0,-1.50704429,0.43978051,-0.10781275\O,0,-1.61238
 137,0.55097961,1.31484125\H,0,0.84883844,1.9877778,0.74184978\H,0,2.38
 378435,1.15971949,1.00348505\H,0,1.89099058,1.61636544,-0.63629398\H,0

 Normal termination of Gaussian 16 at Wed Apr  9 03:53:08 2025.
