 Gaussian 16, Revision C.01,

 ----------------------------------------------------------------------
 #t hf aug-cc-pvdz symm=none int=(grid=ultrafine) guess=(read,tcheck) s
 table=(opt,rrhf)
 ----------------------------------------------------------------------
 -----
 title
 -----
 Symbolic Z-matrix:
 Charge =  0 Multiplicity = 1

 SCF Done:  E(RHF) =  -336.593677333     A.U. after   16 cycles
 Normal termination of Gaussian 16 at Wed Apr  9 16:05:41 2025.
 Gaussian 16:  ES64L-G16RevC.01  3-Jul-2019

 ----------------------------------------------------------------------
 #t hf aug-cc-pvdz iop(5/13=1,5/36=2,99/5=2) pseudo=read geom=check gue
 ss=(read,tcheck) scf=(maxcycle=1)
 ----------------------------------------------------------------------
 -----
 title
 -----
 Structure from the checkpoint file:  "Grambow2020_b97d3_007114_reverse_mol1.chk"
 Charge =  0 Multiplicity = 1

                         Standard orientation:
 ---------------------------------------------------------------------
 Center     Atomic      Atomic             Coordinates (Angstroms)
 Number     Number       Type             X           Y           Z
 ---------------------------------------------------------------------
      1          7           0        1.459008    0.553514    0.941270
      2          6           0        0.937197    0.022113   -0.210539
      3          8           0        1.544422   -0.727257   -0.966409
      4          6           0       -1.155128   -0.104723    0.056081
      5          8           0       -1.574389   -1.039941    0.658056
      6          7           0       -1.370838    1.001259   -0.620747
      7          1           0        0.937014    1.231572    1.484415
      8          1           0        2.427826    0.372659    1.198877
      9          1           0       -2.359568    1.271851   -0.794319
     10          1           0       -0.075140    0.873756   -0.739061
 ---------------------------------------------------------------------

 SCF Done:  E(RHF) =  -336.924138485     A.U. after    2 cycles

 The electronic state is 1-A.
 Alpha  occ. eigenvalues --  -20.63377 -20.52554 -15.56116 -15.53998 -11.47420
 Alpha  occ. eigenvalues --  -11.35452  -1.56352  -1.45574  -1.27763  -1.22091
 Alpha  occ. eigenvalues --   -0.89654  -0.83229  -0.78085  -0.75914  -0.71432
 Alpha  occ. eigenvalues --   -0.66685  -0.64703  -0.61369  -0.55270  -0.54271
 Alpha  occ. eigenvalues --   -0.49136  -0.44039  -0.38051
 Alpha virt. eigenvalues --    0.02401   0.03157   0.04178   0.05880   0.06755
 Alpha virt. eigenvalues --    0.08965   0.10621   0.11271   0.11429   0.12328
 Alpha virt. eigenvalues --    0.12901   0.13552   0.15460   0.16018   0.17129

 Mulliken charges:
               1
     1  N    0.483974
     2  C   -0.061428
     3  O   -1.150079
     4  C    0.216940
     5  O   -0.816218
     6  N    0.434106
     7  H    0.089859
     8  H    0.035585
     9  H    0.058395
    10  H    0.708866
 Sum of Mulliken charges =  -0.00000

 Dipole moment (field-independent basis, Debye):
    X=             -1.6503    Y=              3.2350    Z=              2.0182  Tot=              4.1548

 Test job not archived.
 1\1\GINC-SE100\SP\RHF\Aug-CC-pVDZ\C2H4N2O2\OHZDE\09-Apr-2025\0\\#t hf
 aug-cc-pvdz iop(5/13=1,5/36=2,99/5=2) pseudo=read geom=check guess=(re
 ad,tcheck) scf=(maxcycle=1)\\title\\0,1\N,0,-1.6031029,0.26704003,-0.1
 3534058\C,0,-0.41347651,0.84945821,0.22091138\O,0,-0.31307116,1.925017
 62,0.79945147\C,0,0.98335241,-0.71130753,0.4999786\O,0,0.96774825,-1.2
 7951027,1.54386061\N,0,1.51037397,-0.53634593,-0.69143142\H,0,-1.62148
 028,-0.58495935,-0.68398133\H,0,-2.48395859,0.74931934,0.03547469\H,0,
 2.34402583,-1.10770259,-0.93537761\H,0,0.62958899,0.42898946,-0.653546

 Normal termination of Gaussian 16 at Wed Apr  9 16:05:45 2025.
