 Gaussian 16, Revision C.01,

 ----------------------------------------------------------------------
 #t hf aug-cc-pvdz symm=none int=(grid=ultrafine) guess=(read,tcheck) s
 table=(opt,rrhf)
 ----------------------------------------------------------------------
 -----
 title
 -----
 Symbolic Z-matrix:
 Charge =  0 Multiplicity = 1

 SCF Done:  E(RHF) =  -281.685579556     A.U. after   14 cycles
 Normal termination of Gaussian 16 at Wed Apr  9 03:07:35 2025.
 Gaussian 16:  ES64L-G16RevC.01  3-Jul-2019

 ----------------------------------------------------------------------
 #t hf aug-cc-pvdz iop(5/13=1,5/36=2,99/5=2) pseudo=read geom=check gue
 ss=(read,tcheck) scf=(maxcycle=1)
 ----------------------------------------------------------------------
 -----
 title
 -----
 Structure from the checkpoint file:  "Grambow2020_b97d3_006583_reverse_mol2.chk"
 Charge =  0 Multiplicity = 1

                         Standard orientation:
 ---------------------------------------------------------------------
 Center     Atomic      Atomic             Coordinates (Angstroms)
 Number     Number       Type             X           Y           Z
 ---------------------------------------------------------------------
      1          8           0       -2.263680   -0.129531   -0.000815
      2          6           0       -1.022807    0.367855   -0.001798
      3          7           0        0.019967   -0.382608    0.002790
      4          6           0        1.253218    0.301835    0.002995
      5          8           0        2.328942   -0.260098   -0.003268
      6          1           0       -1.050771    1.466935   -0.008084
      7          1           0       -2.171581   -1.109871    0.003835
      8          1           0        1.178020    1.420082    0.010201
 ---------------------------------------------------------------------

 SCF Done:  E(RHF) =  -281.961992958     A.U. after    2 cycles

 The electronic state is 1-A.
 Alpha  occ. eigenvalues --  -20.63722 -20.54572 -15.52807 -11.40758 -11.37756
 Alpha  occ. eigenvalues --   -1.55722  -1.47603  -1.26498  -0.94009  -0.87433
 Alpha  occ. eigenvalues --   -0.77312  -0.72432  -0.64975  -0.64653  -0.62696
 Alpha  occ. eigenvalues --   -0.56288  -0.52338  -0.45069  -0.44210
 Alpha virt. eigenvalues --    0.03056   0.03878   0.05594   0.06843   0.08777
 Alpha virt. eigenvalues --    0.09484   0.11028   0.12201   0.12505   0.14647
 Alpha virt. eigenvalues --    0.15427   0.16900   0.18020   0.19495   0.20545

 Mulliken charges:
               1
     1  O   -1.127567
     2  C    0.457463
     3  N    0.474799
     4  C    0.637094
     5  O   -1.041634
     6  H    0.072552
     7  H    0.382748
     8  H    0.144545
 Sum of Mulliken charges =   0.00000

 Dipole moment (field-independent basis, Debye):
    X=             -3.8822    Y=              2.2871    Z=              0.0087  Tot=              4.5058

 Test job not archived.
 1\1\GINC-SE073\SP\RHF\Aug-CC-pVDZ\C2H3N1O2\OHZDE\09-Apr-2025\0\\#t hf
 aug-cc-pvdz iop(5/13=1,5/36=2,99/5=2) pseudo=read geom=check guess=(re
 ad,tcheck) scf=(maxcycle=1)\\title\\0,1\O,0,-2.04122233,0.35568915,0.1
 9195272\C,0,-0.81379832,-0.04773034,-0.15132856\N,0,0.24062578,0.35736
 86,0.46078082\C,0,1.45693227,-0.1630548,-0.02822677\O,0,2.53974912,0.1
 1196158,0.44597123\H,0,-0.8633572,-0.74661453,-0.99861941\H,0,-1.93013
 909,0.97358658,0.95052658\H,0,1.36093277,-0.86034123,-0.90044161\\Vers
 ion=ES64L-G16RevC.01\State=1-A\HF=-281.961993\RMSD=1.198e-02\Dipole=-1

 Normal termination of Gaussian 16 at Wed Apr  9 03:07:38 2025.
