 Gaussian 16, Revision C.01,

 ----------------------------------------------------------------------
 #t hf aug-cc-pvdz symm=none int=(grid=ultrafine) guess=(read,tcheck) s
 table=(opt,rrhf)
 ----------------------------------------------------------------------
 -----
 title
 -----
 Symbolic Z-matrix:
 Charge =  0 Multiplicity = 1

 SCF Done:  E(RHF) =  -306.891304308     A.U. after   15 cycles

 1\1\GINC-SE173\Stability\RHF\Aug-CC-pVDZ\C4H10O2\OHZDE\09-Apr-2025\0\\
 #t hf aug-cc-pvdz symm=none int=(grid=ultrafine) guess=(read,tcheck) s
 table=(opt,rrhf)\\title\\0,1\C,0,1.88006037,0.82401609,-0.97650639\O,0
 ,0.56474857,0.27817968,-0.93903019\C,0,0.44275396,-0.83188277,-0.02332
 356\C,0,-1.05602545,-1.10810478,0.13906047\C,0,-1.87739453,-0.16335993
 ,0.99351204\O,0,-1.34936122,1.58074781,0.40302312\H,0,2.61061054,0.067
 33625,-1.30848942\H,0,1.8620043,1.64950749,-1.69734478\H,0,2.18636517,
 1.206583,0.01220855\H,0,0.89707249,-0.57060828,0.94840823\H,0,0.987592

 Normal termination of Gaussian 16 at Wed Apr  9 15:48:57 2025.
 Gaussian 16:  ES64L-G16RevC.01  3-Jul-2019

 ----------------------------------------------------------------------
 #t hf aug-cc-pvdz iop(5/13=1,5/36=2,99/5=2) pseudo=read geom=check gue
 ss=(read,tcheck) scf=(maxcycle=1)
 ----------------------------------------------------------------------
 -----
 title
 -----
 Structure from the checkpoint file:  "Grambow2020_b97d3_006772_forward_mol1.chk"
 Charge =  0 Multiplicity = 1

                         Standard orientation:
 ---------------------------------------------------------------------
 Center     Atomic      Atomic             Coordinates (Angstroms)
 Number     Number       Type             X           Y           Z
 ---------------------------------------------------------------------
      1          6           0        2.299731    0.394645    0.144908
      2          8           0        1.046805    0.043206   -0.434792
      3          6           0        0.396757   -1.048903    0.251047
      4          6           0       -1.041021   -1.108696   -0.276427
      5          6           0       -2.031393   -0.066190    0.202761
      6          8           0       -1.085700    1.590957    0.032648
      7          1           0        3.001952   -0.455102    0.108893
      8          1           0        2.704079    1.222916   -0.448253
      9          1           0        2.182667    0.717055    1.193757
     10          1           0        0.403724   -0.867592    1.340088
     11          1           0        0.959911   -1.977797    0.046209
     12          1           0       -0.991128   -1.160989   -1.377263
     13          1           0       -1.494826   -2.064687    0.049353
     14          1           0       -1.902954    1.327915   -0.539911
     15          1           0       -2.032674   -0.065285    1.307054
     16          1           0       -0.264037    1.225120   -0.396506
 ---------------------------------------------------------------------

 SCF Done:  E(RHF) =  -307.213496714     A.U. after    2 cycles

 The electronic state is 1-A.
 Alpha  occ. eigenvalues --  -20.57070 -20.56444 -11.30303 -11.30080 -11.26048
 Alpha  occ. eigenvalues --  -11.24548  -1.48029  -1.43542  -1.06149  -0.95214
 Alpha  occ. eigenvalues --   -0.88544  -0.79294  -0.72755  -0.67780  -0.66271
 Alpha  occ. eigenvalues --   -0.64723  -0.60108  -0.58761  -0.55794  -0.54244
 Alpha  occ. eigenvalues --   -0.50572  -0.49866  -0.48839  -0.44240  -0.33689
 Alpha virt. eigenvalues --    0.03201   0.03708   0.04102   0.04940   0.06233
 Alpha virt. eigenvalues --    0.06683   0.06747   0.07740   0.08032   0.10290
 Alpha virt. eigenvalues --    0.11813   0.12672   0.14221   0.14462   0.15374

 Mulliken charges:
               1
     1  C    0.174452
     2  O   -1.426506
     3  C    0.481922
     4  C   -0.535528
     5  C   -0.157643
     6  O   -1.081071
     7  H    0.173481
     8  H    0.025456
     9  H    0.199521
    10  H    0.192361
    11  H    0.058400
    12  H    0.189727
    13  H    0.277590
    14  H    0.643264
    15  H    0.065282
    16  H    0.719292
 Sum of Mulliken charges =  -0.00000

 Dipole moment (field-independent basis, Debye):
    X=              3.2127    Y=             -1.7807    Z=              0.4831  Tot=              3.7048

 Test job not archived.
 1\1\GINC-SE173\SP\RHF\Aug-CC-pVDZ\C4H10O2\OHZDE\09-Apr-2025\0\\#t hf a
 ug-cc-pvdz iop(5/13=1,5/36=2,99/5=2) pseudo=read geom=check guess=(rea
 d,tcheck) scf=(maxcycle=1)\\title\\0,1\C,0,1.88006037,0.82401609,-0.97
 650639\O,0,0.56474857,0.27817968,-0.93903019\C,0,0.44275396,-0.8318827
 7,-0.02332356\C,0,-1.05602545,-1.10810478,0.13906047\C,0,-1.87739453,-
 0.16335993,0.99351204\O,0,-1.34936122,1.58074781,0.40302312\H,0,2.6106
 1054,0.06733625,-1.30848942\H,0,1.8620043,1.64950749,-1.69734478\H,0,2
 .18636517,1.206583,0.01220855\H,0,0.89707249,-0.57060828,0.94840823\H,

 Normal termination of Gaussian 16 at Wed Apr  9 15:49:02 2025.
