 Gaussian 16, Revision C.01,

 ----------------------------------------------------------------------
 #t hf aug-cc-pvdz symm=none int=(grid=ultrafine) guess=(read,tcheck) s
 table=(opt,rrhf)
 ----------------------------------------------------------------------
 -----
 title
 -----
 Symbolic Z-matrix:
 Charge =  0 Multiplicity = 1

 SCF Done:  E(RHF) =  -359.456543241     A.U. after   16 cycles
 Normal termination of Gaussian 16 at Wed Apr  9 03:46:31 2025.
 Gaussian 16:  ES64L-G16RevC.01  3-Jul-2019

 ----------------------------------------------------------------------
 #t hf aug-cc-pvdz iop(5/13=1,5/36=2,99/5=2) pseudo=read geom=check gue
 ss=(read,tcheck) scf=(maxcycle=1)
 ----------------------------------------------------------------------
 -----
 title
 -----
 Structure from the checkpoint file:  "Grambow2020_wb97xd3_007897_forward_mol1.chk"
 Charge =  0 Multiplicity = 1

                         Standard orientation:
 ---------------------------------------------------------------------
 Center     Atomic      Atomic             Coordinates (Angstroms)
 Number     Number       Type             X           Y           Z
 ---------------------------------------------------------------------
      1          6           0       -1.068795    1.730052    0.035899
      2          6           0        0.586428   -0.074911   -0.026211
      3          7           0        1.734444   -0.578684   -0.132485
      4          8           0        2.745273    0.351067    0.181882
      5          6           0       -0.578431   -0.896674   -0.355463
      6          6           0       -1.648036   -0.930050    0.634283
      7          8           0       -1.716514    0.030686   -0.442324
      8          1           0       -0.452178    2.089023   -0.772581
      9          1           0       -2.116036    2.007328   -0.029164
     10          1           0       -0.622601    1.856754    1.008086
     11          1           0        3.543678   -0.165295    0.053030
     12          1           0       -0.589070   -1.603503   -1.177606
     13          1           0       -2.437995   -1.669723    0.593923
     14          1           0       -1.443970   -0.488327    1.604196
 ---------------------------------------------------------------------

 SCF Done:  E(RHF) =  -359.818584471     A.U. after    2 cycles

 The electronic state is 1-A.
 Alpha  occ. eigenvalues --  -20.62846 -20.53308 -15.50751 -11.35765 -11.32603
 Alpha  occ. eigenvalues --  -11.30973 -11.19349  -1.54487  -1.44512  -1.13328
 Alpha  occ. eigenvalues --   -1.02014  -0.96006  -0.90477  -0.77222  -0.72692
 Alpha  occ. eigenvalues --   -0.67262  -0.65766  -0.64407  -0.63289  -0.58490
 Alpha  occ. eigenvalues --   -0.56895  -0.55607  -0.51186  -0.50256  -0.47065
 Alpha  occ. eigenvalues --   -0.35932  -0.29268
 Alpha virt. eigenvalues --    0.02580   0.03260   0.04228   0.04665   0.06169
 Alpha virt. eigenvalues --    0.06377   0.06886   0.08208   0.10770   0.11445
 Alpha virt. eigenvalues --    0.12637   0.13438   0.14147   0.14383   0.14943

 Mulliken charges:
               1
     1  C    0.058372
     2  C   -1.649767
     3  N    1.488882
     4  O   -1.118716
     5  C    0.975462
     6  C    0.659634
     7  O   -1.134191
     8  H    0.221020
     9  H    0.064717
    10  H    0.244903
    11  H    0.274949
    12  H   -0.109003
    13  H   -0.015903
    14  H    0.039642
 Sum of Mulliken charges =   0.00000

 Dipole moment (field-independent basis, Debye):
    X=             -5.2779    Y=              0.8331    Z=              0.6452  Tot=              5.3821

 Test job not archived.
 1\1\GINC-SE345\SP\RHF\Aug-CC-pVDZ\C4H7N1O2\OHZDE\09-Apr-2025\0\\#t hf
 aug-cc-pvdz iop(5/13=1,5/36=2,99/5=2) pseudo=read geom=check guess=(re
 ad,tcheck) scf=(maxcycle=1)\\title\\0,1\C,0,-0.56388828,-1.68826269,-0
 .19408932\C,0,-0.47281919,0.71087385,0.29310869\N,0,-0.91816536,1.8242
 0658,0.67413196\O,0,-2.01527975,1.67856775,1.54600898\C,0,0.64536606,0
 .68305427,-0.65001677\C,0,1.77197371,-0.17051998,-0.29374189\O,0,0.727
 90502,-0.70135621,-1.13927018\H,0,-1.53553147,-1.40029211,-0.56246099\
 H,0,-0.11110813,-2.53073319,-0.7069855\H,0,-0.50230191,-1.72153194,0.8

 Normal termination of Gaussian 16 at Wed Apr  9 03:46:35 2025.
