 Gaussian 16, Revision C.01,

 ----------------------------------------------------------------------
 #t hf aug-cc-pvdz symm=none int=(grid=ultrafine) guess=(read,tcheck) s
 table=(opt,rrhf)
 ----------------------------------------------------------------------
 -----
 title
 -----
 Symbolic Z-matrix:
 Charge =  0 Multiplicity = 1

 SCF Done:  E(RHF) =  -307.782404455     A.U. after   14 cycles

 1\1\GINC-SE173\Stability\RHF\Aug-CC-pVDZ\C6H10O1\OHZDE\09-Apr-2025\0\\
 #t hf aug-cc-pvdz symm=none int=(grid=ultrafine) guess=(read,tcheck) s
 table=(opt,rrhf)\\title\\0,1\C,0,-2.15822288,-0.48565615,0.30585535\C,
 0,-0.8905082,-0.13710046,-0.45453243\O,0,-0.48431383,1.18032886,-0.057
 25527\C,0,0.86000039,1.3942824,-0.41936668\C,0,1.58367477,0.06164276,-
 0.30197179\C,0,1.04837556,-0.71998187,0.90742444\C,0,0.15601275,-1.192
 50824,-0.16260774\H,0,-2.90237618,0.29241633,0.13710476\H,0,-1.9615534
 5,-0.5482584,1.37751165\H,0,-2.55791438,-1.43949402,-0.03637544\H,0,-1

 Normal termination of Gaussian 16 at Wed Apr  9 17:57:14 2025.
 Gaussian 16:  ES64L-G16RevC.01  3-Jul-2019

 ----------------------------------------------------------------------
 #t hf aug-cc-pvdz iop(5/13=1,5/36=2,99/5=2) pseudo=read geom=check gue
 ss=(read,tcheck) scf=(maxcycle=1)
 ----------------------------------------------------------------------
 -----
 title
 -----
 Structure from the checkpoint file:  "Grambow2020_wb97xd3_006888_forward_mol1.chk"
 Charge =  0 Multiplicity = 1

                         Standard orientation:
 ---------------------------------------------------------------------
 Center     Atomic      Atomic             Coordinates (Angstroms)
 Number     Number       Type             X           Y           Z
 ---------------------------------------------------------------------
      1          6           0        2.234244    0.137291    0.154500
      2          6           0        0.878346   -0.159703   -0.462036
      3          8           0        0.230081   -1.148939    0.350127
      4          6           0       -1.148504   -1.173533    0.062062
      5          6           0       -1.568929    0.245925   -0.286928
      6          6           0       -0.810309    1.248589    0.595842
      7          6           0        0.095285    1.133329   -0.557924
      8          1           0        2.787614   -0.794597    0.268538
      9          1           0        2.119729    0.593198    1.139426
     10          1           0        2.803388    0.812451   -0.483400
     11          1           0        1.021551   -0.572096   -1.469093
     12          1           0       -1.370640   -1.857884   -0.767319
     13          1           0       -1.661092   -1.535764    0.955929
     14          1           0       -2.629743    0.455816   -0.401329
     15          1           0       -0.517498    0.794292    1.541008
     16          1           0       -1.301574    2.208716    0.721821
     17          1           0       -1.173182    0.495991   -1.339686
 ---------------------------------------------------------------------

 SCF Done:  E(RHF) =  -308.106971918     A.U. after    2 cycles

 The electronic state is 1-A.
 Alpha  occ. eigenvalues --  -20.54493 -11.29437 -11.28662 -11.27143 -11.25695
 Alpha  occ. eigenvalues --  -11.24053 -11.22863  -1.47081  -1.14323  -1.05367
 Alpha  occ. eigenvalues --   -0.94556  -0.87369  -0.82978  -0.75335  -0.70610
 Alpha  occ. eigenvalues --   -0.66354  -0.64981  -0.61049  -0.56029  -0.54748
 Alpha  occ. eigenvalues --   -0.54115  -0.52832  -0.52457  -0.49030  -0.46988
 Alpha  occ. eigenvalues --   -0.42144  -0.34452
 Alpha virt. eigenvalues --    0.03044   0.03505   0.04134   0.04385   0.05889
 Alpha virt. eigenvalues --    0.06213   0.06490   0.06750   0.07869   0.09599
 Alpha virt. eigenvalues --    0.11265   0.12174   0.12693   0.13390   0.13815

 Mulliken charges:
               1
     1  C   -0.415090
     2  C    0.711839
     3  O   -1.480479
     4  C    0.670560
     5  C   -0.592944
     6  C    0.316515
     7  C   -0.464035
     8  H    0.163689
     9  H    0.202810
    10  H    0.240240
    11  H   -0.035642
    12  H    0.081477
    13  H    0.040959
    14  H   -0.023632
    15  H    0.114248
    16  H   -0.056654
    17  H    0.526138
 Sum of Mulliken charges =  -0.00000

 Dipole moment (field-independent basis, Debye):
    X=             -1.6905    Y=             -0.7665    Z=              0.4152  Tot=              1.9020

 Test job not archived.
 1\1\GINC-SE173\SP\RHF\Aug-CC-pVDZ\C6H10O1\OHZDE\09-Apr-2025\0\\#t hf a
 ug-cc-pvdz iop(5/13=1,5/36=2,99/5=2) pseudo=read geom=check guess=(rea
 d,tcheck) scf=(maxcycle=1)\\title\\0,1\C,0,-2.15822288,-0.48565615,0.3
 0585535\C,0,-0.8905082,-0.13710046,-0.45453243\O,0,-0.48431383,1.18032
 886,-0.05725527\C,0,0.86000039,1.3942824,-0.41936668\C,0,1.58367477,0.
 06164276,-0.30197179\C,0,1.04837556,-0.71998187,0.90742444\C,0,0.15601
 275,-1.19250824,-0.16260774\H,0,-2.90237618,0.29241633,0.13710476\H,0,
 -1.96155345,-0.5482584,1.37751165\H,0,-2.55791438,-1.43949402,-0.03637

 Normal termination of Gaussian 16 at Wed Apr  9 17:57:21 2025.
