 Gaussian 16, Revision C.01,

 ----------------------------------------------------------------------
 #t hf aug-cc-pvdz symm=none int=(grid=ultrafine) guess=(read,tcheck) s
 table=(opt,rrhf)
 ----------------------------------------------------------------------
 -----
 title
 -----
 Symbolic Z-matrix:
 Charge =  0 Multiplicity = 1

 SCF Done:  E(RHF) =  -306.696516127     A.U. after   13 cycles
 Normal termination of Gaussian 16 at Wed Apr  9 03:27:54 2025.
 Gaussian 16:  ES64L-G16RevC.01  3-Jul-2019

 ----------------------------------------------------------------------
 #t hf aug-cc-pvdz iop(5/13=1,5/36=2,99/5=2) pseudo=read geom=check gue
 ss=(read,tcheck) scf=(maxcycle=1)
 ----------------------------------------------------------------------
 -----
 title
 -----
 Structure from the checkpoint file:  "Grambow2020_wb97xd3_006670_reverse_mol2.chk"
 Charge =  0 Multiplicity = 1

                         Standard orientation:
 ---------------------------------------------------------------------
 Center     Atomic      Atomic             Coordinates (Angstroms)
 Number     Number       Type             X           Y           Z
 ---------------------------------------------------------------------
      1          6           0       -2.085287   -0.235276   -0.332095
      2          6           0       -0.888377    0.172153    0.522582
      3          6           0        0.214304   -0.875457    0.573608
      4          8           0        0.789833   -1.184953   -0.685790
      5          6           0       -0.150334    1.387194    0.002047
      6          6           0        1.148753    1.168172   -0.166295
      7          6           0        1.470076   -0.250396    0.161701
      8          1           0       -2.590949   -1.104963    0.091531
      9          1           0       -1.758387   -0.486923   -1.341667
     10          1           0       -2.813084    0.575649   -0.397624
     11          1           0       -1.229449    0.366526    1.546408
     12          1           0        0.158830   -1.701070    1.275425
     13          1           0       -0.662127    2.312649   -0.235384
     14          1           0        1.873701    1.884900   -0.527875
     15          1           0        2.447998   -0.565475    0.506213
 ---------------------------------------------------------------------

 SCF Done:  E(RHF) =  -307.016011653     A.U. after    2 cycles

 The electronic state is 1-A.
 Alpha  occ. eigenvalues --  -20.55212 -11.29061 -11.28657 -11.24692 -11.24281
 Alpha  occ. eigenvalues --  -11.23744 -11.22739  -1.49502  -1.12781  -1.02175
 Alpha  occ. eigenvalues --   -0.92861  -0.89566  -0.79065  -0.76006  -0.73304
 Alpha  occ. eigenvalues --   -0.63180  -0.62512  -0.58866  -0.57377  -0.54801
 Alpha  occ. eigenvalues --   -0.54215  -0.51388  -0.49514  -0.45072  -0.41897
 Alpha  occ. eigenvalues --   -0.36220
 Alpha virt. eigenvalues --    0.03414   0.03666   0.03720   0.04742   0.05369
 Alpha virt. eigenvalues --    0.05682   0.07402   0.08256   0.09529   0.11480
 Alpha virt. eigenvalues --    0.12533   0.13405   0.14114   0.14495   0.14701

 Mulliken charges:
               1
     1  C   -0.272795
     2  C   -1.272425
     3  C    1.151039
     4  O   -1.373666
     5  C    0.768497
     6  C    0.242681
     7  C    0.294621
     8  H    0.152042
     9  H    0.243187
    10  H    0.134815
    11  H    0.211507
    12  H    0.002325
    13  H   -0.137303
    14  H   -0.098952
    15  H   -0.045572
 Sum of Mulliken charges =  -0.00000

 Dipole moment (field-independent basis, Debye):
    X=             -0.3713    Y=              1.0306    Z=              1.6163  Tot=              1.9526

 Test job not archived.
 1\1\GINC-SE102\SP\RHF\Aug-CC-pVDZ\C6H8O1\OHZDE\09-Apr-2025\0\\#t hf au
 g-cc-pvdz iop(5/13=1,5/36=2,99/5=2) pseudo=read geom=check guess=(read
 ,tcheck) scf=(maxcycle=1)\\title\\0,1\C,0,1.7714533,0.65067492,-0.1142
 0925\C,0,0.59582744,-0.27972018,-0.39939982\C,0,-0.06933524,-0.8300582
 6,0.85386838\O,0,-0.6221163,0.15853027,1.70840326\C,0,-0.56133473,0.39
 525665,-1.10464446\C,0,-1.71584796,0.23802355,-0.46721743\C,0,-1.49692
 392,-0.51989495,0.79800872\H,0,2.58352146,0.11501084,0.38088469\H,0,1.
 45515139,1.46871878,0.53400652\H,0,2.16635053,1.07638856,-1.03855018\H

 Normal termination of Gaussian 16 at Wed Apr  9 03:27:59 2025.
