 Gaussian 16, Revision C.01,

 ----------------------------------------------------------------------
 #t hf aug-cc-pvdz symm=none int=(grid=ultrafine) guess=(read,tcheck) s
 table=(opt,rrhf)
 ----------------------------------------------------------------------
 -----
 title
 -----
 Symbolic Z-matrix:
 Charge =  0 Multiplicity = 1

 SCF Done:  E(RHF) =  -337.619879873     A.U. after   14 cycles
 Normal termination of Gaussian 16 at Wed Apr  9 04:05:01 2025.
 Gaussian 16:  ES64L-G16RevC.01  3-Jul-2019

 ----------------------------------------------------------------------
 #t hf aug-cc-pvdz iop(5/13=1,5/36=2,99/5=2) pseudo=read geom=check gue
 ss=(read,tcheck) scf=(maxcycle=1)
 ----------------------------------------------------------------------
 -----
 title
 -----
 Structure from the checkpoint file:  "Grambow2020_wb97xd3_009180_reverse_mol2.chk"
 Charge =  0 Multiplicity = 1

                         Standard orientation:
 ---------------------------------------------------------------------
 Center     Atomic      Atomic             Coordinates (Angstroms)
 Number     Number       Type             X           Y           Z
 ---------------------------------------------------------------------
      1          8           0       -2.223194    0.086970   -0.000232
      2          6           0       -0.889189    0.037730    0.000079
      3          6           0       -0.155705    1.222448    0.000467
      4          6           0        1.211312    1.074281   -0.000320
      5          7           0        1.819023   -0.116960   -0.000544
      6          6           0        1.015689   -1.164039    0.000126
      7          7           0       -0.314898   -1.151639    0.000184
      8          1           0       -0.642177    2.187030    0.000440
      9          1           0        1.860465    1.944279    0.001116
     10          1           0       -2.537701   -0.825410   -0.000688
     11          1           0        1.483446   -2.143989    0.001399
 ---------------------------------------------------------------------

 SCF Done:  E(RHF) =  -337.959491990     A.U. after    2 cycles

 The electronic state is 1-A.
 Alpha  occ. eigenvalues --  -20.60439 -15.51256 -15.50513 -11.36996 -11.32651
 Alpha  occ. eigenvalues --  -11.30706 -11.25210  -1.53648  -1.31794  -1.20538
 Alpha  occ. eigenvalues --   -1.08502  -0.93467  -0.91491  -0.79980  -0.76340
 Alpha  occ. eigenvalues --   -0.68009  -0.66035  -0.64868  -0.63392  -0.59159
 Alpha  occ. eigenvalues --   -0.56619  -0.51483  -0.46844  -0.45148  -0.38558
 Alpha virt. eigenvalues --    0.03372   0.04174   0.04851   0.05264   0.07713
 Alpha virt. eigenvalues --    0.08795   0.09566   0.10161   0.11075   0.11945
 Alpha virt. eigenvalues --    0.12497   0.12814   0.12898   0.13935   0.14746

 Mulliken charges:
               1
     1  O   -1.470159
     2  C    0.273473
     3  C    0.934206
     4  C   -0.746249
     5  N    0.692537
     6  C   -0.562143
     7  N    0.801619
     8  H   -0.168014
     9  H   -0.114616
    10  H    0.387176
    11  H   -0.027829
 Sum of Mulliken charges =  -0.00000

 Dipole moment (field-independent basis, Debye):
    X=             -1.2802    Y=              0.8668    Z=              0.0011  Tot=              1.5460

 Test job not archived.
 1\1\GINC-SE058\SP\RHF\Aug-CC-pVDZ\C4H4N2O1\OHZDE\09-Apr-2025\0\\#t hf
 aug-cc-pvdz iop(5/13=1,5/36=2,99/5=2) pseudo=read geom=check guess=(re
 ad,tcheck) scf=(maxcycle=1)\\title\\0,1\O,0,1.67804862,-0.90388212,1.2
 8938271\C,0,0.68421262,-0.43530288,0.53128098\C,0,0.76521734,0.8535566
 2,0.00798981\C,0,-0.30429731,1.25097493,-0.75940013\N,0,-1.3623095,0.4
 6985366,-1.00194375\C,0,-1.32086786,-0.72898445,-0.45168015\N,0,-0.348
 41895,-1.22774137,0.30739901\H,0,1.61775324,1.48827466,0.20134978\H,0,
 -0.32452628,2.23933733,-1.20776195\H,0,1.43382794,-1.80057898,1.549466

 Normal termination of Gaussian 16 at Wed Apr  9 04:05:05 2025.
