 Gaussian 16, Revision C.01,

 ----------------------------------------------------------------------
 #t hf aug-cc-pvdz symm=none int=(grid=ultrafine) guess=(read,tcheck) s
 table=(opt,rrhf)
 ----------------------------------------------------------------------
 -----
 title
 -----
 Symbolic Z-matrix:
 Charge =  0 Multiplicity = 1

 SCF Done:  E(RHF) =  -306.479535536     A.U. after   17 cycles
 Normal termination of Gaussian 16 at Wed Apr  9 19:00:51 2025.
 Gaussian 16:  ES64L-G16RevC.01  3-Jul-2019

 ----------------------------------------------------------------------
 #t hf aug-cc-pvdz iop(5/13=1,5/36=2,99/5=2) pseudo=read geom=check gue
 ss=(read,tcheck) scf=(maxcycle=1)
 ----------------------------------------------------------------------
 -----
 title
 -----
 Structure from the checkpoint file:  "Grambow2020_wb97xd3_008455_reverse_mol1.chk"
 Charge =  0 Multiplicity = 1

                         Standard orientation:
 ---------------------------------------------------------------------
 Center     Atomic      Atomic             Coordinates (Angstroms)
 Number     Number       Type             X           Y           Z
 ---------------------------------------------------------------------
      1          6           0        1.256834   -0.733456   -0.798275
      2          6           0        1.655658    0.445305    0.030933
      3          6           0       -0.671520    1.175764   -0.270179
      4          8           0       -1.536106    0.192591   -0.510419
      5          6           0       -1.524930   -0.835642    0.347880
      6          6           0        0.550299   -0.728355    0.519837
      7          6           0        0.393080    0.785549    0.675724
      8          1           0        0.653815   -0.592980   -1.693048
      9          1           0        2.019943   -1.496072   -0.933445
     10          1           0        2.653252    0.627579    0.412047
     11          1           0       -0.486365    1.777686   -1.151910
     12          1           0       -2.104808   -1.670246   -0.032419
     13          1           0       -1.666985   -0.606790    1.397990
     14          1           0        0.896002   -1.350536    1.334235
     15          1           0        0.367469    1.115638    1.714385
 ---------------------------------------------------------------------

 SCF Done:  E(RHF) =  -306.797506767     A.U. after    2 cycles

 The electronic state is 1-A.
 Alpha  occ. eigenvalues --  -20.61025 -11.28988 -11.27937 -11.27004 -11.26476
 Alpha  occ. eigenvalues --  -11.26073 -11.25521  -1.54172  -1.21754  -0.99581
 Alpha  occ. eigenvalues --   -0.94816  -0.85044  -0.81777  -0.74885  -0.72099
 Alpha  occ. eigenvalues --   -0.69962  -0.65631  -0.63251  -0.58497  -0.54694
 Alpha  occ. eigenvalues --   -0.53563  -0.51391  -0.49737  -0.47859  -0.35686
 Alpha  occ. eigenvalues --   -0.23231
 Alpha virt. eigenvalues --    0.03073   0.03666   0.03755   0.04240   0.05790
 Alpha virt. eigenvalues --    0.05916   0.06307   0.07314   0.08145   0.09681
 Alpha virt. eigenvalues --    0.11693   0.12985   0.13387   0.13800   0.14607

 Mulliken charges:
               1
     1  C   -0.054303
     2  C    0.314670
     3  C    0.832096
     4  O   -1.127434
     5  C    0.413972
     6  C    0.555923
     7  C   -0.169403
     8  H   -0.031916
     9  H   -0.051609
    10  H   -0.207142
    11  H   -0.116220
    12  H   -0.071515
    13  H    0.099324
    14  H   -0.265778
    15  H   -0.120665
 Sum of Mulliken charges =   0.00000

 Dipole moment (field-independent basis, Debye):
    X=              1.6845    Y=             -1.4302    Z=              1.0250  Tot=              2.4359

 Test job not archived.
 1\1\GINC-SE340\SP\RHF\Aug-CC-pVDZ\C6H8O1\OHZDE\09-Apr-2025\0\\#t hf au
 g-cc-pvdz iop(5/13=1,5/36=2,99/5=2) pseudo=read geom=check guess=(read
 ,tcheck) scf=(maxcycle=1)\\title\\0,1\C,0,1.01670066,1.07316604,0.3743
 2964\C,0,1.41136723,0.15324544,-0.73657511\C,0,0.05253941,-1.5167027,0
 .44869232\O,0,-0.90574123,-1.00779227,1.21977078\C,0,-1.7316758,-0.125
 58792,0.64217739\C,0,-0.16205176,0.68936996,-0.46225884\C,0,0.26283869
 ,-0.74313876,-0.79136672\H,0,1.03698983,0.72510904,1.40507218\H,0,1.35
 987663,2.10068907,0.28150499\H,0,2.0761772,0.41305049,-1.55155592\H,0,

 Normal termination of Gaussian 16 at Wed Apr  9 19:00:56 2025.
