 Gaussian 16, Revision C.01,

 ----------------------------------------------------------------------
 #t hf aug-cc-pvdz symm=none int=(grid=ultrafine) guess=(read,tcheck) s
 table=(opt,rrhf)
 ----------------------------------------------------------------------
 -----
 title
 -----
 Symbolic Z-matrix:
 Charge =  0 Multiplicity = 1

 SCF Done:  E(RHF) =  -308.868846493     A.U. after   17 cycles

 1\1\GINC-SE454\Stability\RHF\Aug-CC-pVDZ\C6H12O1\OHZDE\09-Apr-2025\0\\
 #t hf aug-cc-pvdz symm=none int=(grid=ultrafine) guess=(read,tcheck) s
 table=(opt,rrhf)\\title\\0,1\C,0,2.21842219,0.01437575,-0.26432174\C,0
 ,1.1457757,-0.41190835,0.59377216\O,0,1.39850872,-0.27382731,1.9708215
 1\C,0,-0.12109411,0.64959994,0.23032035\C,0,0.026307,0.91339175,-1.242
 09197\C,0,-1.46628221,0.2857636,0.42605487\C,0,-2.11502929,-0.92415279
 ,-0.15641129\H,0,1.31558062,0.7641925,-1.18170837\H,0,2.64447266,-0.68
 505669,-0.97266456\H,0,2.9035198,0.75435008,0.13715856\H,0,0.7818923,-

 Normal termination of Gaussian 16 at Wed Apr  9 18:26:49 2025.
 Gaussian 16:  ES64L-G16RevC.01  3-Jul-2019

 ----------------------------------------------------------------------
 #t hf aug-cc-pvdz iop(5/13=1,5/36=2,99/5=2) pseudo=read geom=check gue
 ss=(read,tcheck) scf=(maxcycle=1)
 ----------------------------------------------------------------------
 -----
 title
 -----
 Structure from the checkpoint file:  "Grambow2020_wb97xd3_007568_forward_mol1.chk"
 Charge =  0 Multiplicity = 1

                         Standard orientation:
 ---------------------------------------------------------------------
 Center     Atomic      Atomic             Coordinates (Angstroms)
 Number     Number       Type             X           Y           Z
 ---------------------------------------------------------------------
      1          6           0       -1.921967    0.787561    0.459661
      2          6           0       -1.034244   -0.341569    0.384652
      3          8           0       -1.583513   -1.487600   -0.218773
      4          6           0        0.215362    0.181711   -0.629506
      5          6           0        0.370901    1.641001   -0.304557
      6          6           0        1.506796   -0.372027   -0.553384
      7          6           0        2.336185   -0.432624    0.684550
      8          1           0       -0.890179    1.752696   -0.012434
      9          1           0       -2.144075    1.227893    1.423638
     10          1           0       -2.720022    0.833986   -0.274546
     11          1           0       -0.567679   -0.579509    1.346710
     12          1           0       -0.852050   -2.047053   -0.500181
     13          1           0       -0.219038    0.065840   -1.624177
     14          1           0        0.871883    1.865904    0.637082
     15          1           0        0.732952    2.278504   -1.110142
     16          1           0        1.916881   -0.887441   -1.418975
     17          1           0        1.845979    0.031810    1.540653
     18          1           0        3.308035    0.051281    0.552953
     19          1           0        2.547219   -1.477422    0.941095
 ---------------------------------------------------------------------

 SCF Done:  E(RHF) =  -309.201484587     A.U. after    2 cycles

 The electronic state is 1-A.
 Alpha  occ. eigenvalues --  -20.54368 -11.28273 -11.27620 -11.24780 -11.24545
 Alpha  occ. eigenvalues --  -11.24353 -11.21738  -1.44793  -1.12119  -1.02768
 Alpha  occ. eigenvalues --   -0.96801  -0.89147  -0.80817  -0.75351  -0.70386
 Alpha  occ. eigenvalues --   -0.67344  -0.63455  -0.60462  -0.58424  -0.57496
 Alpha  occ. eigenvalues --   -0.56964  -0.54635  -0.53714  -0.50244  -0.48751
 Alpha  occ. eigenvalues --   -0.46705  -0.39876  -0.24267
 Alpha virt. eigenvalues --    0.02535   0.03285   0.03379   0.03801   0.04674
 Alpha virt. eigenvalues --    0.05733   0.06195   0.06379   0.06741   0.07152
 Alpha virt. eigenvalues --    0.08722   0.09608   0.09732   0.12688   0.13809

 Mulliken charges:
               1
     1  C   -0.382496
     2  C    1.262310
     3  O   -1.395544
     4  C   -0.550221
     5  C   -0.271153
     6  C    0.381617
     7  C   -0.604665
     8  H    0.624984
     9  H    0.025959
    10  H    0.025522
    11  H    0.078241
    12  H    0.327086
    13  H   -0.026288
    14  H    0.150478
    15  H    0.041688
    16  H   -0.178803
    17  H    0.048082
    18  H    0.221518
    19  H    0.221684
 Sum of Mulliken charges =   0.00000

 Dipole moment (field-independent basis, Debye):
    X=              3.0889    Y=             -0.0530    Z=              0.0664  Tot=              3.0901

 Test job not archived.
 1\1\GINC-SE454\SP\RHF\Aug-CC-pVDZ\C6H12O1\OHZDE\09-Apr-2025\0\\#t hf a
 ug-cc-pvdz iop(5/13=1,5/36=2,99/5=2) pseudo=read geom=check guess=(rea
 d,tcheck) scf=(maxcycle=1)\\title\\0,1\C,0,2.21842219,0.01437575,-0.26
 432174\C,0,1.1457757,-0.41190835,0.59377216\O,0,1.39850872,-0.27382731
 ,1.97082151\C,0,-0.12109411,0.64959994,0.23032035\C,0,0.026307,0.91339
 175,-1.24209197\C,0,-1.46628221,0.2857636,0.42605487\C,0,-2.11502929,-
 0.92415279,-0.15641129\H,0,1.31558062,0.7641925,-1.18170837\H,0,2.6444
 7266,-0.68505669,-0.97266456\H,0,2.9035198,0.75435008,0.13715856\H,0,0

 Normal termination of Gaussian 16 at Wed Apr  9 18:26:56 2025.
