 Gaussian 16, Revision C.01,

 ----------------------------------------------------------------------
 #t hf aug-cc-pvdz symm=none int=(grid=ultrafine) guess=(read,tcheck) s
 table=(opt,rrhf)
 ----------------------------------------------------------------------
 -----
 title
 -----
 Symbolic Z-matrix:
 Charge =  0 Multiplicity = 1

 SCF Done:  E(RHF) =  -358.457160134     A.U. after   16 cycles
 Normal termination of Gaussian 16 at Wed Apr  9 04:04:31 2025.
 Gaussian 16:  ES64L-G16RevC.01  3-Jul-2019

 ----------------------------------------------------------------------
 #t hf aug-cc-pvdz iop(5/13=1,5/36=2,99/5=2) pseudo=read geom=check gue
 ss=(read,tcheck) scf=(maxcycle=1)
 ----------------------------------------------------------------------
 -----
 title
 -----
 Structure from the checkpoint file:  "Grambow2020_wb97xd3_009139_reverse_mol1.chk"
 Charge =  0 Multiplicity = 1

                         Standard orientation:
 ---------------------------------------------------------------------
 Center     Atomic      Atomic             Coordinates (Angstroms)
 Number     Number       Type             X           Y           Z
 ---------------------------------------------------------------------
      1          6           0        2.477141   -0.056885   -0.168778
      2          6           0        0.997530   -0.074463   -0.029951
      3          6           0        0.085590    0.969535   -0.342328
      4          8           0       -0.992390    0.998271    0.676214
      5          6           0       -1.223004   -0.082992   -0.028164
      6          8           0       -2.152775   -0.634313   -0.501669
      7          7           0        0.250476   -1.062696    0.361922
      8          1           0        2.914581    0.485912    0.672413
      9          1           0        2.894227   -1.061975   -0.207201
     10          1           0        2.755448    0.478422   -1.077832
     11          1           0        0.234514    1.899700   -0.863874
     12          1           0        0.585675   -1.806027    0.962014
 ---------------------------------------------------------------------

 SCF Done:  E(RHF) =  -358.813838707     A.U. after    2 cycles

 The electronic state is 1-A.
 Alpha  occ. eigenvalues --  -20.61138 -20.53321 -15.53133 -11.44604 -11.34440
 Alpha  occ. eigenvalues --  -11.28948 -11.27817  -1.57537  -1.47968  -1.26987
 Alpha  occ. eigenvalues --   -1.05027  -0.98185  -0.83796  -0.80725  -0.73515
 Alpha  occ. eigenvalues --   -0.71769  -0.68304  -0.64021  -0.62957  -0.61331
 Alpha  occ. eigenvalues --   -0.58759  -0.56609  -0.50020  -0.48302  -0.45127
 Alpha  occ. eigenvalues --   -0.34282
 Alpha virt. eigenvalues --    0.02424   0.03664   0.04172   0.04285   0.06400
 Alpha virt. eigenvalues --    0.07526   0.09012   0.09376   0.10772   0.11420
 Alpha virt. eigenvalues --    0.12561   0.13130   0.13546   0.14675   0.15232

 Mulliken charges:
               1
     1  C   -0.264772
     2  C   -0.770110
     3  C    0.566387
     4  O   -1.202306
     5  C    1.801063
     6  O   -1.229133
     7  N    0.624449
     8  H    0.285692
     9  H    0.121850
    10  H    0.225457
    11  H   -0.155761
    12  H   -0.002814
 Sum of Mulliken charges =  -0.00000

 Dipole moment (field-independent basis, Debye):
    X=              5.8085    Y=              0.6994    Z=              0.6519  Tot=              5.8867

 Test job not archived.
 1\1\GINC-SE419\SP\RHF\Aug-CC-pVDZ\C4H5N1O2\OHZDE\09-Apr-2025\0\\#t hf
 aug-cc-pvdz iop(5/13=1,5/36=2,99/5=2) pseudo=read geom=check guess=(re
 ad,tcheck) scf=(maxcycle=1)\\title\\0,1\C,0,-1.53938643,-0.39955857,-0
 .71809502\C,0,-0.20853289,-0.13438354,-0.11200693\C,0,0.35039799,1.125
 40137,0.23394812\O,0,1.79964151,1.12082887,-0.08222669\C,0,1.67940564,
 0.33373424,0.95915968\O,0,2.24809114,0.13626085,1.97416604\N,0,0.68099
 78,-1.0060838,0.25830352\H,0,-1.49629851,-0.19938807,-1.79124963\H,0,-
 1.86401597,-1.42589233,-0.55409246\H,0,-2.27973953,0.2796758,-0.292765

 Normal termination of Gaussian 16 at Wed Apr  9 04:04:35 2025.
