 Gaussian 16, Revision C.01,

 ----------------------------------------------------------------------
 #t hf aug-cc-pvdz symm=none int=(grid=ultrafine) guess=(read,tcheck) s
 table=(opt,rrhf)
 ----------------------------------------------------------------------
 -----
 title
 -----
 Symbolic Z-matrix:
 Charge =  0 Multiplicity = 1

 SCF Done:  E(RHF) =  -269.792916129     A.U. after   17 cycles

 1\1\GINC-SE454\Stability\RHF\Aug-CC-pVDZ\C5H10O1\OHZDE\09-Apr-2025\0\\
 #t hf aug-cc-pvdz symm=none int=(grid=ultrafine) guess=(read,tcheck) s
 table=(opt,rrhf)\\title\\0,1\O,0,2.70754663,0.29868455,0.12693668\C,0,
 1.51916789,-0.25730923,0.48005883\C,0,0.34800197,-0.03129143,-0.358516
 13\C,0,-0.49439304,-1.20319266,0.08454642\C,0,-1.85086967,0.47832942,-
 0.35568695\C,0,-0.60929485,1.235188,-0.21826826\H,0,3.29285874,0.35072
 486,0.88494985\H,0,0.68030927,-1.72952243,0.3724018\H,0,1.33619162,-0.
 29875043,1.55471652\H,0,0.59374648,-0.14867211,-1.4143841\H,0,-0.92889

 Normal termination of Gaussian 16 at Wed Apr  9 16:47:10 2025.
 Gaussian 16:  ES64L-G16RevC.01  3-Jul-2019

 ----------------------------------------------------------------------
 #t hf aug-cc-pvdz iop(5/13=1,5/36=2,99/5=2) pseudo=read geom=check gue
 ss=(read,tcheck) scf=(maxcycle=1)
 ----------------------------------------------------------------------
 -----
 title
 -----
 Structure from the checkpoint file:  "Grambow2020_wb97xd3_006153_reverse_mol1.chk"
 Charge =  0 Multiplicity = 1

                         Standard orientation:
 ---------------------------------------------------------------------
 Center     Atomic      Atomic             Coordinates (Angstroms)
 Number     Number       Type             X           Y           Z
 ---------------------------------------------------------------------
      1          8           0       -2.401787   -0.401617   -0.172196
      2          6           0       -1.314947    0.298626    0.245543
      3          6           0       -0.017748    0.035244   -0.365870
      4          6           0        0.679554    1.327768   -0.015960
      5          6           0        2.179376   -0.287457    0.038190
      6          6           0        0.975653   -1.110035    0.125603
      7          1           0       -3.093124   -0.377317    0.492143
      8          1           0       -0.552999    1.796938    0.006417
      9          1           0       -1.302417    0.528389    1.311910
     10          1           0       -0.103957   -0.040361   -1.450249
     11          1           0        0.957334    1.485621    1.020163
     12          1           0        1.166888    1.926154   -0.774415
     13          1           0        2.677579   -0.196344   -0.919621
     14          1           0        2.795982   -0.100513    0.906626
     15          1           0        0.735910   -1.413358    1.145176
     16          1           0        0.921775   -1.981151   -0.525616
 ---------------------------------------------------------------------

 SCF Done:  E(RHF) =  -270.082139431     A.U. after    2 cycles

 The electronic state is 1-A.
 Alpha  occ. eigenvalues --  -20.58808 -11.31759 -11.24383 -11.23835 -11.23271
 Alpha  occ. eigenvalues --  -11.22977  -1.49983  -1.12308  -0.99377  -0.89911
 Alpha  occ. eigenvalues --   -0.82952  -0.77314  -0.73843  -0.66440  -0.63449
 Alpha  occ. eigenvalues --   -0.59644  -0.59475  -0.56147  -0.52697  -0.52588
 Alpha  occ. eigenvalues --   -0.49690  -0.47422  -0.39750  -0.22859
 Alpha virt. eigenvalues --    0.02835   0.03911   0.04205   0.04614   0.05165
 Alpha virt. eigenvalues --    0.06545   0.06567   0.06819   0.07172   0.08168
 Alpha virt. eigenvalues --    0.09757   0.12941   0.13204   0.14136   0.14890

 Mulliken charges:
               1
     1  O   -1.268011
     2  C    0.958850
     3  C   -0.252966
     4  C   -0.301635
     5  C    0.165193
     6  C   -0.125289
     7  H    0.302370
     8  H    0.420903
     9  H   -0.014838
    10  H    0.034774
    11  H    0.115674
    12  H   -0.033076
    13  H   -0.082742
    14  H   -0.094614
    15  H    0.083120
    16  H    0.092289
 Sum of Mulliken charges =   0.00000

 Dipole moment (field-independent basis, Debye):
    X=             -1.1936    Y=             -0.1982    Z=              1.4384  Tot=              1.8796

 Test job not archived.
 1\1\GINC-SE454\SP\RHF\Aug-CC-pVDZ\C5H10O1\OHZDE\09-Apr-2025\0\\#t hf a
 ug-cc-pvdz iop(5/13=1,5/36=2,99/5=2) pseudo=read geom=check guess=(rea
 d,tcheck) scf=(maxcycle=1)\\title\\0,1\O,0,2.70754663,0.29868455,0.126
 93668\C,0,1.51916789,-0.25730923,0.48005883\C,0,0.34800197,-0.03129143
 ,-0.35851613\C,0,-0.49439304,-1.20319266,0.08454642\C,0,-1.85086967,0.
 47832942,-0.35568695\C,0,-0.60929485,1.235188,-0.21826826\H,0,3.292858
 74,0.35072486,0.88494985\H,0,0.68030927,-1.72952243,0.3724018\H,0,1.33
 619162,-0.29875043,1.55471652\H,0,0.59374648,-0.14867211,-1.4143841\H,

 Normal termination of Gaussian 16 at Wed Apr  9 16:47:15 2025.
