 Gaussian 16, Revision C.01,

 ----------------------------------------------------------------------
 #t hf aug-cc-pvdz symm=none int=(grid=ultrafine) guess=(read,tcheck) s
 table=(opt,rrhf)
 ----------------------------------------------------------------------
 -----
 title
 -----
 Symbolic Z-matrix:
 Charge =  0 Multiplicity = 1

 SCF Done:  E(RHF) =  -343.627690760     A.U. after   17 cycles
 Normal termination of Gaussian 16 at Wed Apr  9 03:28:30 2025.
 Gaussian 16:  ES64L-G16RevC.01  3-Jul-2019

 ----------------------------------------------------------------------
 #t hf aug-cc-pvdz iop(5/13=1,5/36=2,99/5=2) pseudo=read geom=check gue
 ss=(read,tcheck) scf=(maxcycle=1)
 ----------------------------------------------------------------------
 -----
 title
 -----
 Structure from the checkpoint file:  "Grambow2020_wb97xd3_006679_reverse_mol1.chk"
 Charge =  0 Multiplicity = 1

                         Standard orientation:
 ---------------------------------------------------------------------
 Center     Atomic      Atomic             Coordinates (Angstroms)
 Number     Number       Type             X           Y           Z
 ---------------------------------------------------------------------
      1          6           0       -1.233823   -0.330770    1.263291
      2          6           0       -0.550739   -0.025717   -0.063969
      3          8           0       -1.024702   -0.855044   -1.092924
      4          6           0       -0.670936    1.442353   -0.462717
      5          6           0        1.528614    1.124220    0.351179
      6          6           0        0.960147   -0.162608    0.072482
      7          8           0        1.581141   -1.204876    0.013156
      8          1           0       -2.312465   -0.216642    1.142780
      9          1           0       -1.020774   -1.357505    1.564300
     10          1           0       -0.887282    0.340239    2.051325
     11          1           0       -0.525614   -1.679200   -1.043363
     12          1           0       -0.524175    1.580386   -1.530775
     13          1           0       -1.586474    1.931821   -0.129953
     14          1           0        2.066997    1.585287   -0.482971
     15          1           0        0.138692    2.010105    0.105211
 ---------------------------------------------------------------------

 SCF Done:  E(RHF) =  -343.977245847     A.U. after    2 cycles

 The electronic state is 1-A.
 Alpha  occ. eigenvalues --  -20.56436 -20.54233 -11.34790 -11.32012 -11.31550
 Alpha  occ. eigenvalues --  -11.27496 -11.24452  -1.48943  -1.46398  -1.13103
 Alpha  occ. eigenvalues --   -1.00520  -0.96111  -0.86820  -0.76312  -0.70634
 Alpha  occ. eigenvalues --   -0.67868  -0.66148  -0.62387  -0.59890  -0.58239
 Alpha  occ. eigenvalues --   -0.57223  -0.54741  -0.54499  -0.52150  -0.47011
 Alpha  occ. eigenvalues --   -0.42936  -0.38470
 Alpha virt. eigenvalues --    0.03093   0.03425   0.04000   0.04437   0.05517
 Alpha virt. eigenvalues --    0.06211   0.06724   0.07185   0.08078   0.09794
 Alpha virt. eigenvalues --    0.11364   0.12607   0.13187   0.14379   0.14826

 Mulliken charges:
               1
     1  C   -0.149584
     2  C    0.180187
     3  O   -1.476203
     4  C   -0.158150
     5  C   -0.487648
     6  C    1.721287
     7  O   -1.445142
     8  H    0.196216
     9  H    0.182514
    10  H    0.275441
    11  H    0.245284
    12  H    0.176523
    13  H    0.200023
    14  H    0.168694
    15  H    0.370557
 Sum of Mulliken charges =   0.00000

 Dipole moment (field-independent basis, Debye):
    X=             -1.5064    Y=              2.3155    Z=             -0.3573  Tot=              2.7854

 Test job not archived.
 1\1\GINC-SE116\SP\RHF\Aug-CC-pVDZ\C5H8O2\OHZDE\09-Apr-2025\0\\#t hf au
 g-cc-pvdz iop(5/13=1,5/36=2,99/5=2) pseudo=read geom=check guess=(read
 ,tcheck) scf=(maxcycle=1)\\title\\0,1\C,0,-1.44358971,-0.70897894,-0.1
 7776488\C,0,-0.32578356,0.31523945,-0.02688084\O,0,-0.80205038,1.62742
 193,-0.17694901\C,0,0.43124259,0.16885711,1.28999443\C,0,1.80094521,-0
 .75918986,-0.40242958\C,0,0.78715981,0.03833481,-1.02928525\O,0,0.7899
 9587,0.38725277,-2.19278119\H,0,-2.22279286,-0.49589888,0.55603132\H,0
 ,-1.87547254,-0.64414115,-1.17749281\H,0,-1.07431646,-1.72469869,-0.02

 Normal termination of Gaussian 16 at Wed Apr  9 03:28:35 2025.
