 Gaussian 16, Revision C.01,

 ----------------------------------------------------------------------
 #t hf aug-cc-pvdz symm=none int=(grid=ultrafine) guess=(read,tcheck) s
 table=(opt,rrhf)
 ----------------------------------------------------------------------
 -----
 title
 -----
 Symbolic Z-matrix:
 Charge =  0 Multiplicity = 1

 SCF Done:  E(RHF) =  -380.667779925     A.U. after   14 cycles
 Normal termination of Gaussian 16 at Wed Apr  9 18:23:43 2025.
 Gaussian 16:  ES64L-G16RevC.01  3-Jul-2019

 ----------------------------------------------------------------------
 #t hf aug-cc-pvdz iop(5/13=1,5/36=2,99/5=2) pseudo=read geom=check gue
 ss=(read,tcheck) scf=(maxcycle=1)
 ----------------------------------------------------------------------
 -----
 title
 -----
 Structure from the checkpoint file:  "Grambow2020_wb97xd3_007515_reverse_mol2.chk"
 Charge =  0 Multiplicity = 1

                         Standard orientation:
 ---------------------------------------------------------------------
 Center     Atomic      Atomic             Coordinates (Angstroms)
 Number     Number       Type             X           Y           Z
 ---------------------------------------------------------------------
      1          8           0        2.172756   -0.935979    0.664564
      2          6           0        2.164655   -0.080127   -0.454509
      3          6           0        1.142158    0.999115   -0.222741
      4          6           0       -0.991192    0.728655    0.703710
      5          8           0       -0.175930    0.425088   -0.259858
      6          6           0       -2.271386   -0.001072    0.480599
      7          8           0       -2.430698   -0.794995   -0.668665
      8          1           0        2.715470   -1.701676    0.474391
      9          1           0        1.918162   -0.622580   -1.375721
     10          1           0        3.138246    0.406668   -0.598743
     11          1           0        1.190571    1.741419   -1.021435
     12          1           0        1.268889    1.478522    0.748017
     13          1           0       -2.401574   -0.596592    1.398390
     14          1           0       -3.060541    0.760426    0.513893
     15          1           0       -1.563658   -0.898529   -1.069484
 ---------------------------------------------------------------------

 SCF Done:  E(RHF) =  -381.054269776     A.U. after    2 cycles

 The electronic state is 1-A.
 Alpha  occ. eigenvalues --  -20.61478 -20.56522 -20.54028 -11.30786 -11.30693
 Alpha  occ. eigenvalues --  -11.29986 -11.27874  -1.54975  -1.47030  -1.44442
 Alpha  occ. eigenvalues --   -1.06681  -0.97985  -0.87980  -0.80133  -0.74130
 Alpha  occ. eigenvalues --   -0.71644  -0.67165  -0.65217  -0.64300  -0.61670
 Alpha  occ. eigenvalues --   -0.59325  -0.56341  -0.54001  -0.51346  -0.50647
 Alpha  occ. eigenvalues --   -0.46307  -0.44028  -0.36185
 Alpha virt. eigenvalues --    0.02756   0.03606   0.04188   0.04919   0.06186
 Alpha virt. eigenvalues --    0.06555   0.06964   0.07850   0.10583   0.10716
 Alpha virt. eigenvalues --    0.12153   0.12760   0.13327   0.13893   0.14787

 Mulliken charges:
               1
     1  O   -1.127200
     2  C    0.695919
     3  C    0.444195
     4  C    0.055094
     5  O   -1.105459
     6  C    0.623409
     7  O   -1.216263
     8  H    0.315912
     9  H    0.104456
    10  H    0.139316
    11  H    0.090015
    12  H    0.208930
    13  H    0.206970
    14  H    0.182199
    15  H    0.382508
 Sum of Mulliken charges =   0.00000

 Dipole moment (field-independent basis, Debye):
    X=              3.6773    Y=             -0.1314    Z=             -1.8884  Tot=              4.1359

 Test job not archived.
 1\1\GINC-SE224\SP\RHF\Aug-CC-pVDZ\C4H8O3\OHZDE\09-Apr-2025\0\\#t hf au
 g-cc-pvdz iop(5/13=1,5/36=2,99/5=2) pseudo=read geom=check guess=(read
 ,tcheck) scf=(maxcycle=1)\\title\\0,1\O,0,-1.63891362,1.60075737,-0.09
 709\C,0,-1.66207035,0.37342172,-0.78845359\C,0,-1.13481046,-0.69932791
 ,0.12542958\C,0,0.70010512,-0.52838065,1.56990332\O,0,0.27122251,-0.49
 189104,0.34516009\C,0,2.16495681,-0.25396167,1.56088512\O,0,2.83323257
 ,-0.07266382,0.33734888\H,0,-1.83976602,2.31180731,-0.70623934\H,0,-1.
 04865214,0.41048822,-1.69729444\H,0,-2.68264428,0.09255504,-1.08033413

 Normal termination of Gaussian 16 at Wed Apr  9 18:23:47 2025.
