 Gaussian 16, Revision C.01,

 ----------------------------------------------------------------------
 #t hf aug-cc-pvdz symm=none int=(grid=ultrafine) guess=(read,tcheck) s
 table=(opt,rrhf)
 ----------------------------------------------------------------------
 -----
 title
 -----
 Symbolic Z-matrix:
 Charge =  0 Multiplicity = 1

 SCF Done:  E(RHF) =  -354.679243520     A.U. after   15 cycles
 Normal termination of Gaussian 16 at Wed Apr  9 03:40:21 2025.
 Gaussian 16:  ES64L-G16RevC.01  3-Jul-2019

 ----------------------------------------------------------------------
 #t hf aug-cc-pvdz iop(5/13=1,5/36=2,99/5=2) pseudo=read geom=check gue
 ss=(read,tcheck) scf=(maxcycle=1)
 ----------------------------------------------------------------------
 -----
 title
 -----
 Structure from the checkpoint file:  "Grambow2020_wb97xd3_007463_reverse_mol2.chk"
 Charge =  0 Multiplicity = 1

                         Standard orientation:
 ---------------------------------------------------------------------
 Center     Atomic      Atomic             Coordinates (Angstroms)
 Number     Number       Type             X           Y           Z
 ---------------------------------------------------------------------
      1          7           0       -2.374151   -0.510282   -0.089642
      2          6           0       -1.095319    0.056249    0.011682
      3          6           0       -0.724249    1.341268    0.021651
      4          7           0        0.794828    1.165896    0.011329
      5          6           0        1.172827   -0.299454    0.002020
      6          8           0        2.305763   -0.689804   -0.020551
      7          7           0       -0.013676   -0.897388    0.019220
      8          1           0       -2.678167   -0.934742    0.778081
      9          1           0       -3.032192    0.214629   -0.339315
     10          1           0        1.206167    1.614885    0.826933
     11          1           0        1.207345    1.617866   -0.802689
     12          1           0       -0.117829   -1.890171   -0.097074
 ---------------------------------------------------------------------

 SCF Done:  E(RHF) =  -355.039826349     A.U. after    2 cycles

 The electronic state is 1-A.
 Alpha  occ. eigenvalues --  -20.55686 -15.62660 -15.56268 -15.50677 -11.42716
 Alpha  occ. eigenvalues --  -11.29049 -11.20705  -1.51692  -1.35131  -1.25883
 Alpha  occ. eigenvalues --   -1.19851  -0.99713  -0.92280  -0.83933  -0.81071
 Alpha  occ. eigenvalues --   -0.75111  -0.73261  -0.70066  -0.65655  -0.64899
 Alpha  occ. eigenvalues --   -0.63026  -0.52925  -0.49972  -0.47586  -0.35603
 Alpha  occ. eigenvalues --   -0.32401
 Alpha virt. eigenvalues --    0.02505   0.03815   0.05067   0.05385   0.06372
 Alpha virt. eigenvalues --    0.08988   0.09721   0.10072   0.10706   0.12464
 Alpha virt. eigenvalues --    0.12694   0.13124   0.13807   0.15083   0.15888

 Mulliken charges:
               1
     1  N    0.590541
     2  C   -1.193882
     3  C   -0.605871
     4  N    0.122154
     5  C    0.497188
     6  O   -1.202568
     7  N    0.644993
     8  H    0.196537
     9  H    0.192707
    10  H    0.365341
    11  H    0.353260
    12  H    0.039601
 Sum of Mulliken charges =   0.00000

 Dipole moment (field-independent basis, Debye):
    X=              0.6407    Y=             -0.7132    Z=              0.7865  Tot=              1.2401

 Test job not archived.
 1\1\GINC-SE253\SP\RHF\Aug-CC-pVDZ\C3H5N3O1\OHZDE\09-Apr-2025\0\\#t hf
 aug-cc-pvdz iop(5/13=1,5/36=2,99/5=2) pseudo=read geom=check guess=(re
 ad,tcheck) scf=(maxcycle=1)\\title\\0,1\N,0,2.13651363,-0.33556878,0.1
 6749264\C,0,0.80365493,0.08160908,0.04066577\C,0,0.285234,1.31453633,0
 .05471481\N,0,-1.20254993,0.9637799,0.01082623\C,0,-1.40661994,-0.5350
 9777,-0.03324282\O,0,-2.48628067,-1.05483543,-0.05839768\N,0,-0.158311
 9,-0.99041672,-0.02870702\H,0,2.51309501,-0.6941987,-0.70147638\H,0,2.
 69771696,0.45255972,0.45861969\H,0,-1.63980903,1.38756845,-0.80477748\

 Normal termination of Gaussian 16 at Wed Apr  9 03:40:25 2025.
