 Gaussian 16, Revision C.01,

 ----------------------------------------------------------------------
 #t hf aug-cc-pvdz symm=none int=(grid=ultrafine) guess=(read,tcheck) s
 table=(opt,rrhf)
 ----------------------------------------------------------------------
 -----
 title
 -----
 Symbolic Z-matrix:
 Charge =  0 Multiplicity = 1

 SCF Done:  E(RHF) =  -374.469107454     A.U. after   18 cycles
 Normal termination of Gaussian 16 at Wed Apr  9 03:57:56 2025.
 Gaussian 16:  ES64L-G16RevC.01  3-Jul-2019

 ----------------------------------------------------------------------
 #t hf aug-cc-pvdz iop(5/13=1,5/36=2,99/5=2) pseudo=read geom=check gue
 ss=(read,tcheck) scf=(maxcycle=1)
 ----------------------------------------------------------------------
 -----
 title
 -----
 Structure from the checkpoint file:  "Grambow2020_wb97xd3_008646_reverse_mol1.chk"
 Charge =  0 Multiplicity = 1

                         Standard orientation:
 ---------------------------------------------------------------------
 Center     Atomic      Atomic             Coordinates (Angstroms)
 Number     Number       Type             X           Y           Z
 ---------------------------------------------------------------------
      1          6           0       -1.900484   -0.964124    0.058827
      2          7           0       -0.557470   -0.496185   -0.284602
      3          7           0        0.356101   -1.330412    0.018029
      4          6           0        1.599300   -0.747113    0.016892
      5          8           0        1.756415    0.462293   -0.042892
      6          6           0       -0.308532    1.151149    0.360147
      7          8           0       -0.589209    2.143956   -0.122468
      8          1           0       -2.175693   -1.689011   -0.707302
      9          1           0       -1.922755   -1.449312    1.034135
     10          1           0       -2.590705   -0.123999    0.020449
     11          1           0        2.419380   -1.440959    0.226411
 ---------------------------------------------------------------------

 SCF Done:  E(RHF) =  -374.835481898     A.U. after    2 cycles

 The electronic state is 1-A.
 Alpha  occ. eigenvalues --  -20.61294 -20.56199 -15.64604 -15.55554 -11.37645
 Alpha  occ. eigenvalues --  -11.36751 -11.29907  -1.57015  -1.50109  -1.38826
 Alpha  occ. eigenvalues --   -1.12754  -0.96594  -0.86548  -0.79422  -0.75174
 Alpha  occ. eigenvalues --   -0.71095  -0.69888  -0.65841  -0.62381  -0.61149
 Alpha  occ. eigenvalues --   -0.59552  -0.59166  -0.52344  -0.51075  -0.46796
 Alpha  occ. eigenvalues --   -0.38935
 Alpha virt. eigenvalues --   -0.00508   0.03233   0.04706   0.05193   0.05301
 Alpha virt. eigenvalues --    0.08123   0.08964   0.09507   0.10379   0.11043
 Alpha virt. eigenvalues --    0.13370   0.14434   0.14928   0.15122   0.16351

 Mulliken charges:
               1
     1  C   -0.253495
     2  N   -0.168258
     3  N    0.056865
     4  C    0.630404
     5  O   -0.949349
     6  C    0.947715
     7  O   -0.804516
     8  H    0.170118
     9  H    0.179091
    10  H    0.117787
    11  H    0.073639
 Sum of Mulliken charges =  -0.00000

 Dipole moment (field-independent basis, Debye):
    X=             -1.9561    Y=             -2.1417    Z=              0.4544  Tot=              2.9360

 Test job not archived.
 1\1\GINC-SE009\SP\RHF\Aug-CC-pVDZ\C3H4N2O2\OHZDE\09-Apr-2025\0\\#t hf
 aug-cc-pvdz iop(5/13=1,5/36=2,99/5=2) pseudo=read geom=check guess=(re
 ad,tcheck) scf=(maxcycle=1)\\title\\0,1\C,0,-1.53776752,-0.35821342,-0
 .09858394\N,0,-0.16422521,0.09437247,-0.32026653\N,0,0.65630523,-0.863
 57339,-0.49691029\C,0,1.95849002,-0.45200744,-0.35299653\O,0,2.2544830
 5,0.63843384,0.10987251\C,0,0.30347156,1.25302949,0.956509\O,0,0.12217
 533,2.37715801,0.98530083\H,0,-1.9277822,-0.63862475,-1.07705868\H,0,-
 1.57694772,-1.22314228,0.56284664\H,0,-2.12513151,0.4677203,0.2970485\

 Normal termination of Gaussian 16 at Wed Apr  9 03:58:00 2025.
