 Gaussian 16, Revision C.01,

 ----------------------------------------------------------------------
 #t hf aug-cc-pvdz symm=none int=(grid=ultrafine) guess=(read,tcheck) s
 table=(opt,rrhf)
 ----------------------------------------------------------------------
 -----
 title
 -----
 Symbolic Z-matrix:
 Charge =  0 Multiplicity = 1

 SCF Done:  E(RHF) =  -308.977159360     A.U. after   15 cycles

 1\1\GINC-SE069\Stability\RHF\Aug-CC-pVDZ\C6H12O1\OHZDE\09-Apr-2025\0\\
 #t hf aug-cc-pvdz symm=none int=(grid=ultrafine) guess=(read,tcheck) s
 table=(opt,rrhf)\\title\\0,1\C,0,2.28391921,0.56115993,0.70614504\C,0,
 1.07619302,-0.29289056,0.34182867\C,0,1.27219074,-0.95392994,-1.047564
 1\C,0,-0.15508222,0.47766613,0.10383853\C,0,-1.38103915,-0.21018046,0.
 48994597\C,0,-2.63975009,0.3116896,-0.20596326\O,0,-2.63446575,1.71166
 575,-0.25790265\H,0,2.14368539,1.04624941,1.67334777\H,0,3.18849447,-0
 .04947378,0.76290068\H,0,2.43384743,1.34234553,-0.04100121\H,0,0.94941

 Normal termination of Gaussian 16 at Wed Apr  9 03:53:01 2025.
 Gaussian 16:  ES64L-G16RevC.01  3-Jul-2019

 ----------------------------------------------------------------------
 #t hf aug-cc-pvdz iop(5/13=1,5/36=2,99/5=2) pseudo=read geom=check gue
 ss=(read,tcheck) scf=(maxcycle=1)
 ----------------------------------------------------------------------
 -----
 title
 -----
 Structure from the checkpoint file:  "Grambow2020_wb97xd3_008300_reverse_mol2.chk"
 Charge =  0 Multiplicity = 1

                         Standard orientation:
 ---------------------------------------------------------------------
 Center     Atomic      Atomic             Coordinates (Angstroms)
 Number     Number       Type             X           Y           Z
 ---------------------------------------------------------------------
      1          6           0       -2.458955   -1.093298    0.034455
      2          6           0       -1.457299    0.016673    0.326654
      3          6           0       -1.734785    1.253717   -0.566948
      4          6           0       -0.076015   -0.300226   -0.070919
      5          6           0        0.947629    0.287204    0.784804
      6          6           0        2.320214    0.419514    0.121858
      7          8           0        2.629476   -0.731710   -0.614144
      8          1           0       -2.256538   -1.974753    0.644801
      9          1           0       -3.478501   -0.762318    0.247363
     10          1           0       -2.398111   -1.391274   -1.013622
     11          1           0       -1.547382    0.346777    1.373957
     12          1           0       -2.757896    1.583042   -0.380705
     13          1           0       -1.640453    1.000512   -1.623718
     14          1           0       -1.064334    2.085190   -0.345309
     15          1           0        2.315761    1.313870   -0.517474
     16          1           0        0.658630    1.170691    1.374048
     17          1           0        0.998553   -0.559810    1.504397
     18          1           0        3.100269    0.559990    0.873319
     19          1           0        1.789459   -1.019736   -1.003320
 ---------------------------------------------------------------------

 SCF Done:  E(RHF) =  -309.308387563     A.U. after    2 cycles

 The electronic state is 1-A.
 Alpha  occ. eigenvalues --  -20.52848 -11.28039 -11.26870 -11.24939 -11.24781
 Alpha  occ. eigenvalues --  -11.24704 -11.22957  -1.43836  -1.12477  -1.04292
 Alpha  occ. eigenvalues --   -0.94595  -0.91343  -0.82875  -0.73078  -0.68242
 Alpha  occ. eigenvalues --   -0.65346  -0.65104  -0.60978  -0.58532  -0.57859
 Alpha  occ. eigenvalues --   -0.55686  -0.54404  -0.51360  -0.51074  -0.49936
 Alpha  occ. eigenvalues --   -0.46546  -0.42678  -0.35655
 Alpha virt. eigenvalues --    0.03019   0.03339   0.03507   0.04393   0.05612
 Alpha virt. eigenvalues --    0.05648   0.06177   0.06567   0.07165   0.08491
 Alpha virt. eigenvalues --    0.08693   0.09259   0.09512   0.12613   0.13408

 Mulliken charges:
               1
     1  C   -0.056743
     2  C   -1.094101
     3  C   -0.055300
     4  C   -0.129751
     5  C   -0.656509
     6  C    0.808969
     7  O   -1.188584
     8  H    0.166448
     9  H    0.180317
    10  H    0.262971
    11  H    0.100756
    12  H    0.154584
    13  H    0.273721
    14  H    0.117877
    15  H    0.153989
    16  H    0.077268
    17  H    0.385935
    18  H    0.077093
    19  H    0.421062
 Sum of Mulliken charges =  -0.00000

 Dipole moment (field-independent basis, Debye):
    X=             -2.5777    Y=              1.9138    Z=              1.7700  Tot=              3.6660

 Test job not archived.
 1\1\GINC-SE069\SP\RHF\Aug-CC-pVDZ\C6H12O1\OHZDE\09-Apr-2025\0\\#t hf a
 ug-cc-pvdz iop(5/13=1,5/36=2,99/5=2) pseudo=read geom=check guess=(rea
 d,tcheck) scf=(maxcycle=1)\\title\\0,1\C,0,2.28391921,0.56115993,0.706
 14504\C,0,1.07619302,-0.29289056,0.34182867\C,0,1.27219074,-0.95392994
 ,-1.0475641\C,0,-0.15508222,0.47766613,0.10383853\C,0,-1.38103915,-0.2
 1018046,0.48994597\C,0,-2.63975009,0.3116896,-0.20596326\O,0,-2.634465
 75,1.71166575,-0.25790265\H,0,2.14368539,1.04624941,1.67334777\H,0,3.1
 8849447,-0.04947378,0.76290068\H,0,2.43384743,1.34234553,-0.04100121\H

 Normal termination of Gaussian 16 at Wed Apr  9 03:53:08 2025.
