 Gaussian 16, Revision C.01,

 ----------------------------------------------------------------------
 #t hf aug-cc-pvdz symm=none int=(grid=ultrafine) guess=(read,tcheck) s
 table=(opt,rrhf)
 ----------------------------------------------------------------------
 -----
 title
 -----
 Symbolic Z-matrix:
 Charge =  0 Multiplicity = 1

 SCF Done:  E(RHF) =  -302.050586984     A.U. after   13 cycles
 Normal termination of Gaussian 16 at Wed Apr  9 03:14:59 2025.
 Gaussian 16:  ES64L-G16RevC.01  3-Jul-2019

 ----------------------------------------------------------------------
 #t hf aug-cc-pvdz iop(5/13=1,5/36=2,99/5=2) pseudo=read geom=check gue
 ss=(read,tcheck) scf=(maxcycle=1)
 ----------------------------------------------------------------------
 -----
 title
 -----
 Structure from the checkpoint file:  "Grambow2020_b97d3_006942_reverse_mol2.chk"
 Charge =  0 Multiplicity = 1

                         Standard orientation:
 ---------------------------------------------------------------------
 Center     Atomic      Atomic             Coordinates (Angstroms)
 Number     Number       Type             X           Y           Z
 ---------------------------------------------------------------------
      1          6           0        2.080455   -0.749296    0.080644
      2          7           0        1.315691    0.469895   -0.170422
      3          6           0       -0.066169    0.520626   -0.023754
      4          8           0       -0.584266   -0.738202   -0.041351
      5          7           0       -0.826044    1.553503    0.073017
      6          6           0       -2.016618   -0.814211    0.007931
      7          1           0        2.024783   -1.095087    1.127019
      8          1           0        3.130083   -0.553840   -0.171934
      9          1           0        1.713012   -1.551928   -0.566638
     10          1           0        1.774482    1.326938    0.119095
     11          1           0       -0.273755    2.416300    0.058026
     12          1           0       -2.464459   -0.283220   -0.841099
     13          1           0       -2.244806   -1.884401   -0.038941
     14          1           0       -2.398754   -0.375642    0.938192
 ---------------------------------------------------------------------

 SCF Done:  E(RHF) =  -302.364059416     A.U. after    2 cycles

 The electronic state is 1-A.
 Alpha  occ. eigenvalues --  -20.57699 -15.52194 -15.45951 -11.37215 -11.28575
 Alpha  occ. eigenvalues --  -11.27351  -1.50774  -1.24755  -1.16151  -0.96856
 Alpha  occ. eigenvalues --   -0.94057  -0.80678  -0.75615  -0.69116  -0.66971
 Alpha  occ. eigenvalues --   -0.64884  -0.61278  -0.59671  -0.56434  -0.53255
 Alpha  occ. eigenvalues --   -0.51294  -0.47574  -0.44903  -0.39932
 Alpha virt. eigenvalues --    0.03247   0.04394   0.04628   0.05286   0.05841
 Alpha virt. eigenvalues --    0.06209   0.06905   0.08103   0.10631   0.12872
 Alpha virt. eigenvalues --    0.13424   0.14059   0.14469   0.15658   0.16080

 Mulliken charges:
               1
     1  C   -0.484415
     2  N    0.496351
     3  C   -0.496813
     4  O   -1.500611
     5  N    0.801209
     6  C    0.144426
     7  H    0.167042
     8  H    0.024782
     9  H    0.161410
    10  H    0.235634
    11  H    0.071297
    12  H    0.216935
    13  H   -0.051450
    14  H    0.214201
 Sum of Mulliken charges =  -0.00000

 Dipole moment (field-independent basis, Debye):
    X=              2.1978    Y=             -1.0042    Z=              0.5225  Tot=              2.4722

 Test job not archived.
 1\1\GINC-SE250\SP\RHF\Aug-CC-pVDZ\C3H8N2O1\OHZDE\09-Apr-2025\0\\#t hf
 aug-cc-pvdz iop(5/13=1,5/36=2,99/5=2) pseudo=read geom=check guess=(re
 ad,tcheck) scf=(maxcycle=1)\\title\\0,1\C,0,-2.09190381,0.20099157,-0.
 13345022\N,0,-1.08615599,-0.33522513,0.78047979\C,0,0.27726317,-0.2056
 4843,0.53981508\O,0,0.4947677,0.0786075,-0.77368062\N,0,1.2556552,-0.3
 5951797,1.35998815\C,0,1.87306896,0.14397508,-1.16846344\H,0,-2.057113
 98,1.29970993,-0.22925328\H,0,-3.08246117,-0.09055286,0.23738186\H,0,-
 1.95302217,-0.23532176,-1.12770842\H,0,-1.32170889,-0.25924973,1.76413

 Normal termination of Gaussian 16 at Wed Apr  9 03:15:03 2025.
