 Gaussian 16, Revision C.01,

 ----------------------------------------------------------------------
 #t hf aug-cc-pvdz symm=none int=(grid=ultrafine) guess=(read,tcheck) s
 table=(opt,rrhf)
 ----------------------------------------------------------------------
 -----
 title
 -----
 Symbolic Z-matrix:
 Charge =  0 Multiplicity = 1

 SCF Done:  E(RHF) =  -279.765832669     A.U. after   16 cycles
 Normal termination of Gaussian 16 at Wed Apr  9 15:56:41 2025.
 Gaussian 16:  ES64L-G16RevC.01  3-Jul-2019

 ----------------------------------------------------------------------
 #t hf aug-cc-pvdz iop(5/13=1,5/36=2,99/5=2) pseudo=read geom=check gue
 ss=(read,tcheck) scf=(maxcycle=1)
 ----------------------------------------------------------------------
 -----
 title
 -----
 Structure from the checkpoint file:  "Grambow2020_b97d3_007050_reverse_mol1.chk"
 Charge =  0 Multiplicity = 1

                         Standard orientation:
 ---------------------------------------------------------------------
 Center     Atomic      Atomic             Coordinates (Angstroms)
 Number     Number       Type             X           Y           Z
 ---------------------------------------------------------------------
      1          7           0        2.038212    0.053299   -0.201986
      2          6           0        0.669637    0.084788    0.097216
      3          6           0       -0.247784    1.170386    0.045195
      4          6           0       -1.492637    0.558935   -0.071248
      5          7           0       -1.410994   -0.799613   -0.056713
      6          7           0       -0.122609   -1.155898    0.012986
      7          1           0        2.400343   -0.899838   -0.168360
      8          1           0        2.596445    0.664628    0.392357
      9          1           0       -0.008296    2.227784    0.069302
     10          1           0       -2.463729    1.043146   -0.137647
     11          1           0        0.367678   -0.604887    1.137358
 ---------------------------------------------------------------------

 SCF Done:  E(RHF) =  -280.050460646     A.U. after    2 cycles

 The electronic state is 1-A.
 Alpha  occ. eigenvalues --  -15.58647 -15.53616 -15.52791 -11.34268 -11.27990
 Alpha  occ. eigenvalues --  -11.25444  -1.36521  -1.23297  -1.08058  -1.05476
 Alpha  occ. eigenvalues --   -0.84741  -0.81606  -0.74762  -0.72700  -0.68825
 Alpha  occ. eigenvalues --   -0.63504  -0.59666  -0.55044  -0.54339  -0.47321
 Alpha  occ. eigenvalues --   -0.41582  -0.37722
 Alpha virt. eigenvalues --    0.02359   0.04062   0.04332   0.05313   0.06375
 Alpha virt. eigenvalues --    0.08208   0.10791   0.10946   0.11815   0.11952
 Alpha virt. eigenvalues --    0.13319   0.13479   0.14236   0.14557   0.15900

 Mulliken charges:
               1
     1  N    0.580289
     2  C   -1.713509
     3  C    0.723290
     4  C   -0.188623
     5  N    0.061272
     6  N   -0.171206
     7  H    0.144084
     8  H    0.184060
     9  H   -0.128500
    10  H   -0.111223
    11  H    0.620066
 Sum of Mulliken charges =  -0.00000

 Dipole moment (field-independent basis, Debye):
    X=              2.9242    Y=              3.3609    Z=              1.8463  Tot=              4.8224

 Test job not archived.
 1\1\GINC-SE043\SP\RHF\Aug-CC-pVDZ\C3H5N3\OHZDE\09-Apr-2025\0\\#t hf au
 g-cc-pvdz iop(5/13=1,5/36=2,99/5=2) pseudo=read geom=check guess=(read
 ,tcheck) scf=(maxcycle=1)\\title\\0,1\N,0,-1.82479471,-0.05920159,-0.3
 3453179\C,0,-0.47101003,0.05168273,0.00968202\C,0,0.60176783,-0.854487
 86,-0.2159093\C,0,1.74009631,-0.05577967,-0.15790392\N,0,1.45207849,1.
 24522881,0.11950157\N,0,0.12370635,1.38685637,0.20377572\H,0,-2.328402
 25,0.80402986,-0.12971404\H,0,-2.2901771,-0.85251512,0.10440466\H,0,0.
 52605887,-1.91877164,-0.40980445\H,0,2.77437664,-0.36865412,-0.277327\

 Normal termination of Gaussian 16 at Wed Apr  9 15:56:45 2025.
