 Gaussian 16, Revision C.01,

 ----------------------------------------------------------------------
 #t hf aug-cc-pvdz symm=none int=(grid=ultrafine) guess=(read,tcheck) s
 table=(opt,rrhf)
 ----------------------------------------------------------------------
 -----
 title
 -----
 Symbolic Z-matrix:
 Charge =  0 Multiplicity = 1

 SCF Done:  E(RHF) =  -302.703428184     A.U. after   17 cycles
 Normal termination of Gaussian 16 at Wed Apr  9 19:18:09 2025.
 Gaussian 16:  ES64L-G16RevC.01  3-Jul-2019

 ----------------------------------------------------------------------
 #t hf aug-cc-pvdz iop(5/13=1,5/36=2,99/5=2) pseudo=read geom=check gue
 ss=(read,tcheck) scf=(maxcycle=1)
 ----------------------------------------------------------------------
 -----
 title
 -----
 Structure from the checkpoint file:  "Grambow2020_wb97xd3_009078_reverse_mol1.chk"
 Charge =  0 Multiplicity = 1

                         Standard orientation:
 ---------------------------------------------------------------------
 Center     Atomic      Atomic             Coordinates (Angstroms)
 Number     Number       Type             X           Y           Z
 ---------------------------------------------------------------------
      1          6           0        2.353077   -0.579704    0.144565
      2          7           0        1.018826   -0.282612   -0.162911
      3          6           0        0.847761    1.102952   -0.106399
      4          6           0       -0.558307    1.246648    0.135923
      5          6           0       -1.068131   -0.026908    0.014264
      6          6           0       -2.492104   -0.468628    0.053764
      7          7           0       -0.083585   -0.964496   -0.141204
      8          1           0        2.760326   -1.466615   -0.333006
      9          1           0        2.549494   -0.516915    1.209485
     10          1           0        2.091453    1.043187    0.354103
     11          1           0        1.253257    1.623605   -0.974820
     12          1           0       -1.118742    2.161479    0.236725
     13          1           0       -3.148404    0.365272    0.299589
     14          1           0       -2.632043   -1.253810    0.797603
     15          1           0       -2.795805   -0.872604   -0.913578
 ---------------------------------------------------------------------

 SCF Done:  E(RHF) =  -303.022474290     A.U. after    2 cycles

 The electronic state is 1-A.
 Alpha  occ. eigenvalues --  -15.62420 -15.54916 -11.28362 -11.28122 -11.24908
 Alpha  occ. eigenvalues --  -11.24820 -11.24279  -1.41461  -1.17167  -1.09450
 Alpha  occ. eigenvalues --   -1.01355  -0.90546  -0.86768  -0.78793  -0.72339
 Alpha  occ. eigenvalues --   -0.69721  -0.64491  -0.62110  -0.59270  -0.57860
 Alpha  occ. eigenvalues --   -0.55913  -0.53804  -0.52163  -0.46905  -0.37773
 Alpha  occ. eigenvalues --   -0.30497
 Alpha virt. eigenvalues --    0.02501   0.03334   0.03955   0.04239   0.05355
 Alpha virt. eigenvalues --    0.05565   0.05795   0.06772   0.07326   0.09193
 Alpha virt. eigenvalues --    0.11397   0.11998   0.13307   0.14176   0.14552

 Mulliken charges:
               1
     1  C   -0.256899
     2  N    0.293406
     3  C   -0.515690
     4  C    0.429248
     5  C   -0.541543
     6  C   -0.459581
     7  N    0.029130
     8  H   -0.085549
     9  H    0.065316
    10  H    0.537943
    11  H    0.082194
    12  H   -0.173886
    13  H    0.153505
    14  H    0.213293
    15  H    0.229112
 Sum of Mulliken charges =  -0.00000

 Dipole moment (field-independent basis, Debye):
    X=             -1.2681    Y=              2.3808    Z=              0.0655  Tot=              2.6983

 Test job not archived.
 1\1\GINC-SE135\SP\RHF\Aug-CC-pVDZ\C5H8N2\OHZDE\09-Apr-2025\0\\#t hf au
 g-cc-pvdz iop(5/13=1,5/36=2,99/5=2) pseudo=read geom=check guess=(read
 ,tcheck) scf=(maxcycle=1)\\title\\0,1\C,0,2.44088606,-0.56243231,0.105
 635\N,0,1.09678846,-0.30894831,-0.19797745\C,0,0.87742486,1.06910766,-
 0.12665833\C,0,-0.53259191,1.16095783,0.11790369\C,0,-0.9976755,-0.128
 28988,-0.01701596\C,0,-2.40529464,-0.61994126,0.01852494\N,0,0.0189173
 6,-1.02916707,-0.18294605\H,0,2.87847694,-1.42944366,-0.38154324\H,0,2
 .635933,-0.50410338,1.1710607\H,0,2.12285449,1.04800215,0.33253941\H,0

 Normal termination of Gaussian 16 at Wed Apr  9 19:18:14 2025.
