 Gaussian 16, Revision C.01,

 ----------------------------------------------------------------------
 #t hf aug-cc-pvdz symm=none int=(grid=ultrafine) guess=(read,tcheck) s
 table=(opt,rrhf)
 ----------------------------------------------------------------------
 -----
 title
 -----
 Symbolic Z-matrix:
 Charge =  0 Multiplicity = 1

 SCF Done:  E(RHF) =  -337.396215331     A.U. after   19 cycles
 Normal termination of Gaussian 16 at Wed Apr  9 03:58:25 2025.
 Gaussian 16:  ES64L-G16RevC.01  3-Jul-2019

 ----------------------------------------------------------------------
 #t hf aug-cc-pvdz iop(5/13=1,5/36=2,99/5=2) pseudo=read geom=check gue
 ss=(read,tcheck) scf=(maxcycle=1)
 ----------------------------------------------------------------------
 -----
 title
 -----
 Structure from the checkpoint file:  "Grambow2020_wb97xd3_008689_reverse_mol1.chk"
 Charge =  0 Multiplicity = 1

                         Standard orientation:
 ---------------------------------------------------------------------
 Center     Atomic      Atomic             Coordinates (Angstroms)
 Number     Number       Type             X           Y           Z
 ---------------------------------------------------------------------
      1          8           0        2.103944   -0.665660    0.574212
      2          6           0        1.751381    0.133962   -0.251993
      3          6           0        0.454645    0.716159   -0.371945
      4          6           0       -0.522662    1.531549   -0.154073
      5          7           0       -1.313988    0.657490    0.539221
      6          6           0       -1.624570   -0.611235    0.147920
      7          7           0       -0.822950   -1.410021   -0.429924
      8          1           0        2.431236    0.517660   -1.041940
      9          1           0       -0.722440    2.592763   -0.242516
     10          1           0       -2.648603   -0.872772    0.425857
     11          1           0       -1.285939   -2.267263   -0.719639
 ---------------------------------------------------------------------

 SCF Done:  E(RHF) =  -337.727370216     A.U. after    2 cycles

 The electronic state is 1-A.
 Alpha  occ. eigenvalues --  -20.55440 -15.52468 -15.48495 -11.37639 -11.35462
 Alpha  occ. eigenvalues --  -11.33468 -11.32080  -1.48879  -1.29857  -1.19234
 Alpha  occ. eigenvalues --   -1.06124  -0.96485  -0.83315  -0.78846  -0.73632
 Alpha  occ. eigenvalues --   -0.72584  -0.68091  -0.66122  -0.61495  -0.55906
 Alpha  occ. eigenvalues --   -0.47908  -0.46483  -0.44465  -0.44274  -0.37124
 Alpha virt. eigenvalues --    0.02562   0.02673   0.03913   0.04403   0.05663
 Alpha virt. eigenvalues --    0.06321   0.08344   0.09522   0.09928   0.10538
 Alpha virt. eigenvalues --    0.11432   0.12669   0.13175   0.14090   0.14869

 Mulliken charges:
               1
     1  O   -1.139702
     2  C    0.949433
     3  C    0.022994
     4  C    0.013449
     5  N    0.407499
     6  C   -1.086721
     7  N    0.638874
     8  H    0.214792
     9  H   -0.036005
    10  H   -0.036751
    11  H    0.052139
 Sum of Mulliken charges =  -0.00000

 Dipole moment (field-independent basis, Debye):
    X=             -0.9780    Y=              3.1443    Z=             -2.7491  Tot=              4.2896

 Test job not archived.
 1\1\GINC-SE367\SP\RHF\Aug-CC-pVDZ\C4H4N2O1\OHZDE\09-Apr-2025\0\\#t hf
 aug-cc-pvdz iop(5/13=1,5/36=2,99/5=2) pseudo=read geom=check guess=(re
 ad,tcheck) scf=(maxcycle=1)\\title\\0,1\O,0,-2.19278396,-0.96655955,-0
 .73958121\C,0,-1.95413116,-0.06364147,0.01810832\C,0,-0.72068592,0.643
 18601,0.13590195\C,0,0.19226433,1.5201221,-0.11897811\N,0,1.09121624,0
 .66036129,-0.68777415\C,0,1.48986626,-0.53206337,-0.16009632\N,0,0.731
 61006,-1.34249962,0.45861006\H,0,-2.70470106,0.32931069,0.73621486\H,0
 ,0.29448241,2.59872811,-0.1271774\H,0,2.54573365,-0.72413356,-0.366366

 Normal termination of Gaussian 16 at Wed Apr  9 03:58:29 2025.
