 Gaussian 16, Revision C.01,

 ----------------------------------------------------------------------
 #t hf aug-cc-pvdz symm=none int=(grid=ultrafine) guess=(read,tcheck) s
 table=(opt,rrhf)
 ----------------------------------------------------------------------
 -----
 title
 -----
 Symbolic Z-matrix:
 Charge =  0 Multiplicity = 1

 SCF Done:  E(RHF) =  -338.607240547     A.U. after   15 cycles
 Normal termination of Gaussian 16 at Wed Apr  9 03:52:33 2025.
 Gaussian 16:  ES64L-G16RevC.01  3-Jul-2019

 ----------------------------------------------------------------------
 #t hf aug-cc-pvdz iop(5/13=1,5/36=2,99/5=2) pseudo=read geom=check gue
 ss=(read,tcheck) scf=(maxcycle=1)
 ----------------------------------------------------------------------
 -----
 title
 -----
 Structure from the checkpoint file:  "Grambow2020_wb97xd3_008307_reverse_mol2.chk"
 Charge =  0 Multiplicity = 1

                         Standard orientation:
 ---------------------------------------------------------------------
 Center     Atomic      Atomic             Coordinates (Angstroms)
 Number     Number       Type             X           Y           Z
 ---------------------------------------------------------------------
      1          6           0       -2.385782    0.259733    0.489109
      2          8           0       -1.497909   -0.294767   -0.528745
      3          6           0       -0.073269   -0.132578   -0.228020
      4          6           0        0.665013   -1.232048    0.061289
      5          7           0        1.868166   -0.549923    0.228197
      6          6           0        1.721495    0.792967    0.047371
      7          7           0        0.476614    1.094912   -0.250161
      8          1           0       -2.156631   -0.213938    1.442155
      9          1           0       -3.405290    0.074355    0.160555
     10          1           0       -2.159647    1.320642    0.514205
     11          1           0       -1.540585   -1.272956   -0.548316
     12          1           0        2.737668   -0.996816    0.457741
     13          1           0        2.529548    1.503487    0.138872
 ---------------------------------------------------------------------

 SCF Done:  E(RHF) =  -338.952539930     A.U. after    2 cycles

 The electronic state is 1-A.
 Alpha  occ. eigenvalues --  -20.70136 -15.52190 -15.47782 -11.34847 -11.27849
 Alpha  occ. eigenvalues --  -11.27047 -11.18685  -1.61169  -1.31654  -1.15471
 Alpha  occ. eigenvalues --   -1.03562  -0.97369  -0.87020  -0.81770  -0.78188
 Alpha  occ. eigenvalues --   -0.74073  -0.71696  -0.65740  -0.61688  -0.60554
 Alpha  occ. eigenvalues --   -0.59891  -0.56976  -0.49714  -0.42455  -0.34083
 Alpha  occ. eigenvalues --   -0.30004
 Alpha virt. eigenvalues --    0.02305   0.03844   0.04530   0.04935   0.05955
 Alpha virt. eigenvalues --    0.06625   0.09702   0.10395   0.10733   0.10991
 Alpha virt. eigenvalues --    0.12697   0.13325   0.14133   0.14823   0.15368

 Mulliken charges:
               1
     1  C    0.122142
     2  O   -1.413199
     3  C    0.452115
     4  C   -0.863772
     5  N    0.578188
     6  C   -0.383694
     7  N    0.723470
     8  H    0.221253
     9  H    0.037994
    10  H    0.226173
    11  H    0.412002
    12  H   -0.012419
    13  H   -0.100253
 Sum of Mulliken charges =   0.00000

 Dipole moment (field-independent basis, Debye):
    X=             -3.7676    Y=              0.6271    Z=              1.0530  Tot=              3.9619

 Test job not archived.
 1\1\GINC-SE457\SP\RHF\Aug-CC-pVDZ\C4H6N2O1\OHZDE\09-Apr-2025\0\\#t hf
 aug-cc-pvdz iop(5/13=1,5/36=2,99/5=2) pseudo=read geom=check guess=(re
 ad,tcheck) scf=(maxcycle=1)\\title\\0,1\C,0,2.13518787,0.08427969,-0.5
 9549868\O,0,1.26357529,-0.70268982,0.27213396\C,0,-0.13803508,-0.27676
 002,0.2518539\C,0,-1.06429495,-1.09625103,-0.30318747\N,0,-2.15366284,
 -0.26692122,-0.04585326\C,0,-1.78001409,0.88548268,0.57858025\N,0,-0.4
 8166075,0.90893326,0.78631321\H,0,1.75062449,0.02935104,-1.61248639\H,
 0,3.13717771,-0.32655287,-0.50092797\H,0,2.07927597,1.09674354,-0.2093

 Normal termination of Gaussian 16 at Wed Apr  9 03:52:37 2025.
