 Gaussian 16, Revision C.01,

 ----------------------------------------------------------------------
 #t hf aug-cc-pvdz symm=none int=(grid=ultrafine) guess=(read,tcheck) s
 table=(opt,rrhf)
 ----------------------------------------------------------------------
 -----
 title
 -----
 Symbolic Z-matrix:
 Charge =  0 Multiplicity = 1

 SCF Done:  E(RHF) =  -307.834972245     A.U. after   15 cycles

 1\1\GINC-SE045\Stability\RHF\Aug-CC-pVDZ\C6H10O1\OHZDE\09-Apr-2025\0\\
 #t hf aug-cc-pvdz symm=none int=(grid=ultrafine) guess=(read,tcheck) s
 table=(opt,rrhf)\\title\\0,1\C,0,2.25095172,-0.57880971,-0.25847191\C,
 0,0.99731486,-0.31004196,0.09659647\C,0,0.10714956,0.55463527,-0.67065
 014\C,0,-1.19640639,0.74502366,-0.4263549\C,0,-2.02058765,0.04483194,0
 .56171224\C,0,-2.1038627,-1.28053294,0.70268611\O,0,-1.44307184,-2.219
 52712,-0.00039504\H,0,2.68067719,-0.17133649,-1.16774274\H,0,2.4306158
 2,2.47440149,0.27725394\H,0,2.88751603,-1.20985026,0.34840417\H,0,0.59

 Normal termination of Gaussian 16 at Wed Apr  9 18:37:43 2025.
 Gaussian 16:  ES64L-G16RevC.01  3-Jul-2019

 ----------------------------------------------------------------------
 #t hf aug-cc-pvdz iop(5/13=1,5/36=2,99/5=2) pseudo=read geom=check gue
 ss=(read,tcheck) scf=(maxcycle=1)
 ----------------------------------------------------------------------
 -----
 title
 -----
 Structure from the checkpoint file:  "Grambow2020_wb97xd3_007818_reverse_mol2.chk"
 Charge =  0 Multiplicity = 1

                         Standard orientation:
 ---------------------------------------------------------------------
 Center     Atomic      Atomic             Coordinates (Angstroms)
 Number     Number       Type             X           Y           Z
 ---------------------------------------------------------------------
      1          6           0        2.379146   -1.136206    0.051256
      2          6           0        1.258140   -0.455110    0.273447
      3          6           0        0.863630    0.724199   -0.489653
      4          6           0       -0.312723    1.358180   -0.392454
      5          6           0       -1.478859    0.939691    0.389092
      6          6           0       -2.041249   -0.271077    0.355079
      7          8           0       -1.644453   -1.335648   -0.367362
      8          1           0        3.066260   -0.851701   -0.738936
      9          1           0        3.523084    1.598668    0.974972
     10          1           0        2.647332   -1.995317    0.652695
     11          1           0        0.594171   -0.765439    1.075184
     12          1           0        1.614736    1.134342   -1.158798
     13          1           0        3.930428    2.223023    0.960080
     14          1           0       -0.429353    2.283611   -0.950414
     15          1           0       -1.994734    1.694634    0.970364
     16          1           0       -2.936956   -0.493617    0.922373
     17          1           0       -0.867859   -1.101081   -0.889217
 ---------------------------------------------------------------------

 SCF Done:  E(RHF) =  -308.160566902     A.U. after    2 cycles

 The electronic state is 1-A.
 Alpha  occ. eigenvalues --  -20.57966 -11.30954 -11.25439 -11.24901 -11.24822
 Alpha  occ. eigenvalues --  -11.24371 -11.23237  -1.49844  -1.11610  -1.05606
 Alpha  occ. eigenvalues --   -0.99101  -0.86587  -0.81686  -0.75498  -0.70633
 Alpha  occ. eigenvalues --   -0.67841  -0.65581  -0.61185  -0.59007  -0.58171
 Alpha  occ. eigenvalues --   -0.57774  -0.54827  -0.54303  -0.50102  -0.46342
 Alpha  occ. eigenvalues --   -0.37490  -0.31525
 Alpha virt. eigenvalues --    0.03442   0.03648   0.03992   0.04927   0.05442
 Alpha virt. eigenvalues --    0.05903   0.06665   0.07070   0.07792   0.08322
 Alpha virt. eigenvalues --    0.10301   0.11270   0.12344   0.12962   0.13474

 Mulliken charges:
               1
     1  C   -0.234826
     2  C    0.564217
     3  C    0.593937
     4  C   -0.106262
     5  C    0.323108
     6  C    1.097922
     7  O   -1.515611
     8  H   -0.112146
     9  H   -0.034522
    10  H   -0.135402
    11  H   -0.227674
    12  H   -0.305506
    13  H    0.035672
    14  H   -0.208168
    15  H   -0.180438
    16  H   -0.058259
    17  H    0.503959
 Sum of Mulliken charges =  -0.00000

 Dipole moment (field-independent basis, Debye):
    X=              0.4625    Y=              0.7035    Z=             -0.1692  Tot=              0.8587

 Test job not archived.
 1\1\GINC-SE045\SP\RHF\Aug-CC-pVDZ\C6H10O1\OHZDE\09-Apr-2025\0\\#t hf a
 ug-cc-pvdz iop(5/13=1,5/36=2,99/5=2) pseudo=read geom=check guess=(rea
 d,tcheck) scf=(maxcycle=1)\\title\\0,1\C,0,2.25095172,-0.57880971,-0.2
 5847191\C,0,0.99731486,-0.31004196,0.09659647\C,0,0.10714956,0.5546352
 7,-0.67065014\C,0,-1.19640639,0.74502366,-0.4263549\C,0,-2.02058765,0.
 04483194,0.56171224\C,0,-2.1038627,-1.28053294,0.70268611\O,0,-1.44307
 184,-2.21952712,-0.00039504\H,0,2.68067719,-0.17133649,-1.16774274\H,0
 ,2.43061582,2.47440149,0.27725394\H,0,2.88751603,-1.20985026,0.3484041

 Normal termination of Gaussian 16 at Wed Apr  9 18:37:49 2025.
