 Gaussian 16, Revision C.01,

 ----------------------------------------------------------------------
 #t hf aug-cc-pvdz symm=none int=(grid=ultrafine) guess=(read,tcheck) s
 table=(opt,rrhf)
 ----------------------------------------------------------------------
 -----
 title
 -----
 Symbolic Z-matrix:
 Charge =  0 Multiplicity = 1

 SCF Done:  E(RHF) =  -269.489726125     A.U. after   15 cycles
 Normal termination of Gaussian 16 at Wed Apr  9 18:51:52 2025.
 Gaussian 16:  ES64L-G16RevC.01  3-Jul-2019

 ----------------------------------------------------------------------
 #t hf aug-cc-pvdz iop(5/13=1,5/36=2,99/5=2) pseudo=read geom=check gue
 ss=(read,tcheck) scf=(maxcycle=1)
 ----------------------------------------------------------------------
 -----
 title
 -----
 Structure from the checkpoint file:  "Grambow2020_wb97xd3_008146_forward_mol1.chk"
 Charge =  0 Multiplicity = 1

                         Standard orientation:
 ---------------------------------------------------------------------
 Center     Atomic      Atomic             Coordinates (Angstroms)
 Number     Number       Type             X           Y           Z
 ---------------------------------------------------------------------
      1          6           0        2.158646   -0.245836   -0.080560
      2          6           0        0.679153   -0.085938    0.022963
      3          6           0       -0.479096   -1.026508   -0.422314
      4          6           0       -1.300410    0.199841   -0.724630
      5          6           0       -1.312471   -0.390494    0.657858
      6          6           0       -0.090776    0.381854    1.245785
      7          6           0       -0.116297    1.121057   -0.427728
      8          1           0        2.657604    0.616802    0.365806
      9          1           0        2.483910   -1.135750    0.461605
     10          1           0        2.483304   -0.339441   -1.119713
     11          1           0       -0.512672   -2.008962   -0.866178
     12          1           0       -2.143954    0.319945   -1.387499
     13          1           0       -2.179171   -0.766748    1.181063
     14          1           0       -0.335448    1.631235    0.705323
     15          1           0        0.313938    1.959064   -0.968651
 ---------------------------------------------------------------------

 SCF Done:  E(RHF) =  -269.774325556     A.U. after    2 cycles

 The electronic state is 1-A.
 Alpha  occ. eigenvalues --  -11.28130 -11.25550 -11.25167 -11.25119 -11.24629
 Alpha  occ. eigenvalues --  -11.24184 -11.23056  -1.28740  -1.03957  -0.97370
 Alpha  occ. eigenvalues --   -0.91010  -0.85939  -0.75075  -0.70150  -0.69140
 Alpha  occ. eigenvalues --   -0.62711  -0.60363  -0.57313  -0.56744  -0.53685
 Alpha  occ. eigenvalues --   -0.47809  -0.46260  -0.43811  -0.38782  -0.30900
 Alpha virt. eigenvalues --    0.03093   0.03277   0.03492   0.04548   0.05363
 Alpha virt. eigenvalues --    0.05940   0.06788   0.07184   0.09674   0.11073
 Alpha virt. eigenvalues --    0.12058   0.12342   0.12687   0.13582   0.13825

 Mulliken charges:
               1
     1  C   -0.757849
     2  C   -0.118279
     3  C    0.285667
     4  C    0.499035
     5  C    0.405860
     6  C   -0.551139
     7  C   -0.271847
     8  H    0.249682
     9  H    0.256518
    10  H    0.273502
    11  H   -0.279479
    12  H   -0.218890
    13  H   -0.211530
    14  H    0.596832
    15  H   -0.158083
 Sum of Mulliken charges =  -0.00000

 Dipole moment (field-independent basis, Debye):
    X=             -0.4042    Y=             -0.0837    Z=             -2.7947  Tot=              2.8250

 Test job not archived.
 1\1\GINC-SE229\SP\RHF\Aug-CC-pVDZ\C7H8\OHZDE\09-Apr-2025\0\\#t hf aug-
 cc-pvdz iop(5/13=1,5/36=2,99/5=2) pseudo=read geom=check guess=(read,t
 check) scf=(maxcycle=1)\\title\\0,1\C,0,2.02024866,-0.02604182,0.06456
 164\C,0,0.52988602,-0.02843371,0.12780356\C,0,-0.5024821,-1.1299717,-0
 .25339752\C,0,-1.44808687,-0.03600868,-0.67643635\C,0,-1.4313853,-0.50
 392543,0.75209085\C,0,-0.32095556,0.45053113,1.29123631\C,0,-0.3837935
 8,1.03669757,-0.44086632\H,0,2.40651154,0.92293582,0.44216945\H,0,2.42
 870532,-0.82340519,0.68830796\H,0,2.38166399,-0.17000984,-0.95654347\H

 Normal termination of Gaussian 16 at Wed Apr  9 18:51:57 2025.
