 Gaussian 16, Revision C.01,

 ----------------------------------------------------------------------
 #t hf aug-cc-pvdz symm=none int=(grid=ultrafine) guess=(read,tcheck) s
 table=(opt,rrhf)
 ----------------------------------------------------------------------
 -----
 title
 -----
 Symbolic Z-matrix:
 Charge =  0 Multiplicity = 1

 SCF Done:  E(RHF) =  -338.610133686     A.U. after   15 cycles
 Normal termination of Gaussian 16 at Wed Apr  9 19:01:47 2025.
 Gaussian 16:  ES64L-G16RevC.01  3-Jul-2019

 ----------------------------------------------------------------------
 #t hf aug-cc-pvdz iop(5/13=1,5/36=2,99/5=2) pseudo=read geom=check gue
 ss=(read,tcheck) scf=(maxcycle=1)
 ----------------------------------------------------------------------
 -----
 title
 -----
 Structure from the checkpoint file:  "Grambow2020_wb97xd3_008473_forward_mol1.chk"
 Charge =  0 Multiplicity = 1

                         Standard orientation:
 ---------------------------------------------------------------------
 Center     Atomic      Atomic             Coordinates (Angstroms)
 Number     Number       Type             X           Y           Z
 ---------------------------------------------------------------------
      1          7           0       -1.408157   -1.504946   -0.077226
      2          6           0       -0.313756   -0.664800    0.009983
      3          6           0       -0.250937    0.746662    0.077756
      4          8           0       -1.377204    1.514919   -0.041312
      5          6           0        1.148122    1.226936   -0.031300
      6          6           0        1.825412    0.014464   -0.039265
      7          7           0        0.959308   -1.064708   -0.057397
      8          1           0       -2.271297   -0.984779   -0.109751
      9          1           0       -1.452572   -2.236659    0.615690
     10          1           0       -1.077799    2.381489   -0.333800
     11          1           0        0.383099    0.978245    1.107745
     12          1           0        2.887651   -0.176340   -0.031694
     13          1           0        1.237444   -2.033307   -0.078377
 ---------------------------------------------------------------------

 SCF Done:  E(RHF) =  -338.956372423     A.U. after    2 cycles

 The electronic state is 1-A.
 Alpha  occ. eigenvalues --  -20.57180 -15.58426 -15.54097 -11.33288 -11.30462
 Alpha  occ. eigenvalues --  -11.24889 -11.19816  -1.48793  -1.33944  -1.22800
 Alpha  occ. eigenvalues --   -1.08268  -0.98703  -0.84523  -0.83345  -0.78583
 Alpha  occ. eigenvalues --   -0.73785  -0.68695  -0.67016  -0.64976  -0.62509
 Alpha  occ. eigenvalues --   -0.57951  -0.53572  -0.50742  -0.42714  -0.34062
 Alpha  occ. eigenvalues --   -0.29283
 Alpha virt. eigenvalues --    0.01917   0.03787   0.04971   0.05432   0.05708
 Alpha virt. eigenvalues --    0.06746   0.09758   0.10255   0.10960   0.11915
 Alpha virt. eigenvalues --    0.13086   0.13318   0.13693   0.13809   0.15530

 Mulliken charges:
               1
     1  N    0.755282
     2  C   -2.071973
     3  C    1.614861
     4  O   -1.611229
     5  C   -0.762348
     6  C   -0.046697
     7  N    0.893938
     8  H    0.252035
     9  H    0.153628
    10  H    0.336958
    11  H    0.664053
    12  H   -0.198364
    13  H    0.019854
 Sum of Mulliken charges =   0.00000

 Dipole moment (field-independent basis, Debye):
    X=             -1.8589    Y=             -4.4979    Z=              1.2717  Tot=              5.0303

 Test job not archived.
 1\1\GINC-SE232\SP\RHF\Aug-CC-pVDZ\C4H6N2O1\OHZDE\09-Apr-2025\0\\#t hf
 aug-cc-pvdz iop(5/13=1,5/36=2,99/5=2) pseudo=read geom=check guess=(re
 ad,tcheck) scf=(maxcycle=1)\\title\\0,1\N,0,1.88539704,0.64338417,-0.0
 8678368\C,0,0.53826153,0.33564005,-0.04574131\C,0,-0.10925169,-0.92152
 119,-0.01356467\O,0,0.59743972,-2.08820392,-0.1245251\C,0,-1.57696836,
 -0.77274314,-0.1671791\C,0,-1.68663086,0.61174913,-0.16185635\N,0,-0.4
 4944005,1.23113115,-0.13347992\H,0,2.45372942,-0.18910051,-0.11147309\
 H,0,2.20888583,1.28135819,0.62444984\H,0,-0.02652706,-2.74714514,-0.44

 Normal termination of Gaussian 16 at Wed Apr  9 19:01:51 2025.
