 Gaussian 16, Revision C.01,

 ----------------------------------------------------------------------
 #t hf aug-cc-pvdz symm=none int=(grid=ultrafine) guess=(read,tcheck) s
 table=(opt,rrhf)
 ----------------------------------------------------------------------
 -----
 title
 -----
 Symbolic Z-matrix:
 Charge =  0 Multiplicity = 1

 SCF Done:  E(RHF) =  -299.588150011     A.U. after   20 cycles
 Normal termination of Gaussian 16 at Wed Apr  9 16:46:48 2025.
 Gaussian 16:  ES64L-G16RevC.01  3-Jul-2019

 ----------------------------------------------------------------------
 #t hf aug-cc-pvdz iop(5/13=1,5/36=2,99/5=2) pseudo=read geom=check gue
 ss=(read,tcheck) scf=(maxcycle=1)
 ----------------------------------------------------------------------
 -----
 title
 -----
 Structure from the checkpoint file:  "Grambow2020_wb97xd3_006149_forward_mol1.chk"
 Charge =  0 Multiplicity = 1

                         Standard orientation:
 ---------------------------------------------------------------------
 Center     Atomic      Atomic             Coordinates (Angstroms)
 Number     Number       Type             X           Y           Z
 ---------------------------------------------------------------------
      1          7           0        2.012748   -0.417143   -0.028552
      2          6           0        0.744358    0.113128    0.044648
      3          6           0       -0.310134   -0.888717    0.113672
      4          6           0       -1.671236   -0.549076   -0.146079
      5          7           0       -1.920799    0.659386    0.015718
      6          8           0        0.557055    1.316338    0.030213
      7          1           0        2.738709    0.244266   -0.243526
      8          1           0        2.149227   -1.355862   -0.356050
      9          1           0       -0.119896   -1.843828    0.590653
     10          1           0       -2.446049   -1.322997   -0.216387
 ---------------------------------------------------------------------

 SCF Done:  E(RHF) =  -299.881272434     A.U. after    2 cycles

 The electronic state is 1-A.
 Alpha  occ. eigenvalues --  -20.50616 -15.59915 -15.52257 -11.36025 -11.32961
 Alpha  occ. eigenvalues --  -11.27339  -1.45771  -1.27465  -1.21927  -1.01873
 Alpha  occ. eigenvalues --   -0.86681  -0.79600  -0.74255  -0.70148  -0.65817
 Alpha  occ. eigenvalues --   -0.63444  -0.60558  -0.58923  -0.56077  -0.44050
 Alpha  occ. eigenvalues --   -0.43392  -0.34807
 Alpha virt. eigenvalues --   -0.02762   0.02821   0.03440   0.04996   0.06310
 Alpha virt. eigenvalues --    0.08798   0.09152   0.11694   0.11836   0.12339
 Alpha virt. eigenvalues --    0.12703   0.13214   0.13696   0.15343   0.15992

 Mulliken charges:
               1
     1  N    0.602775
     2  C    0.268772
     3  C    0.466929
     4  C   -0.903540
     5  N    0.789333
     6  O   -1.275249
     7  H    0.103747
     8  H    0.040254
     9  H   -0.109939
    10  H    0.016918
 Sum of Mulliken charges =  -0.00000

 Dipole moment (field-independent basis, Debye):
    X=              0.3236    Y=             -5.2528    Z=             -0.9020  Tot=              5.3394

 Test job not archived.
 1\1\GINC-SE114\SP\RHF\Aug-CC-pVDZ\C3H4N2O1\OHZDE\09-Apr-2025\0\\#t hf
 aug-cc-pvdz iop(5/13=1,5/36=2,99/5=2) pseudo=read geom=check guess=(re
 ad,tcheck) scf=(maxcycle=1)\\title\\0,1\N,0,1.80480204,-0.09567511,-0.
 33334535\C,0,0.5784425,-0.48932427,0.15290627\C,0,-0.52943246,0.338806
 09,-0.30231063\C,0,-1.79785876,0.30090214,0.34967398\N,0,-1.99943194,-
 0.75165666,0.9823896\O,0,0.46964085,-1.43718606,0.90969316\H,0,2.59619
 418,-0.5440155,0.09488834\H,0,1.94167801,0.84471784,-0.65583715\H,0,-0
 .48674039,0.81345908,-1.27638518\H,0,-2.59221302,1.01134647,0.08794395

 Normal termination of Gaussian 16 at Wed Apr  9 16:46:51 2025.
