 Gaussian 16, Revision C.01,

 ----------------------------------------------------------------------
 #t hf aug-cc-pvdz symm=none int=(grid=ultrafine) guess=(read,tcheck) s
 table=(opt,rrhf)
 ----------------------------------------------------------------------
 -----
 title
 -----
 Symbolic Z-matrix:
 Charge =  0 Multiplicity = 1

 SCF Done:  E(RHF) =  -286.769564050     A.U. after   16 cycles
 Normal termination of Gaussian 16 at Wed Apr  9 18:13:23 2025.
 Gaussian 16:  ES64L-G16RevC.01  3-Jul-2019

 ----------------------------------------------------------------------
 #t hf aug-cc-pvdz iop(5/13=1,5/36=2,99/5=2) pseudo=read geom=check gue
 ss=(read,tcheck) scf=(maxcycle=1)
 ----------------------------------------------------------------------
 -----
 title
 -----
 Structure from the checkpoint file:  "Grambow2020_wb97xd3_007188_reverse_mol1.chk"
 Charge =  0 Multiplicity = 1

                         Standard orientation:
 ---------------------------------------------------------------------
 Center     Atomic      Atomic             Coordinates (Angstroms)
 Number     Number       Type             X           Y           Z
 ---------------------------------------------------------------------
      1          6           0       -2.446194   -0.706882    0.238630
      2          6           0       -1.816651    0.294118   -0.470807
      3          6           0       -0.905998    1.246135   -0.044569
      4          6           0        0.440360    1.111465    0.142000
      5          6           0        1.115531   -0.154528    0.025861
      6          6           0        2.622111   -0.115179    0.010962
      7          7           0        0.449774   -1.255809   -0.083998
      8          1           0       -1.306447   -1.110667   -0.011786
      9          1           0       -2.515534   -0.697482    1.329748
     10          1           0       -3.150030   -1.359824   -0.270730
     11          1           0       -1.345243    2.242067    0.012814
     12          1           0        1.035864    1.998744    0.307484
     13          1           0        3.049803   -1.116998    0.051127
     14          1           0        2.974502    0.380598   -0.896169
     15          1           0        2.994384    0.460326    0.860753
     16          1           0        1.059331   -2.056876   -0.207719
 ---------------------------------------------------------------------

 SCF Done:  E(RHF) =  -287.071453316     A.U. after    2 cycles

 The electronic state is 1-A.
 Alpha  occ. eigenvalues --  -15.47346 -11.29354 -11.27003 -11.26332 -11.25134
 Alpha  occ. eigenvalues --  -11.24066 -11.21377  -1.21437  -1.11029  -1.03327
 Alpha  occ. eigenvalues --   -0.99187  -0.89123  -0.78966  -0.71231  -0.68813
 Alpha  occ. eigenvalues --   -0.64525  -0.61781  -0.60927  -0.59507  -0.56911
 Alpha  occ. eigenvalues --   -0.55005  -0.53309  -0.48381  -0.42409  -0.41212
 Alpha  occ. eigenvalues --   -0.29244
 Alpha virt. eigenvalues --    0.03548   0.03749   0.04116   0.05033   0.05161
 Alpha virt. eigenvalues --    0.05610   0.05767   0.07895   0.08643   0.09798
 Alpha virt. eigenvalues --    0.10617   0.11174   0.12396   0.13228   0.13823

 Mulliken charges:
               1
     1  C   -0.232673
     2  C   -0.672405
     3  C    0.751389
     4  C    0.724143
     5  C   -1.768158
     6  C   -0.501671
     7  N    0.935475
     8  H    0.509302
     9  H    0.045631
    10  H    0.110964
    11  H   -0.155284
    12  H   -0.280727
    13  H    0.043862
    14  H    0.290525
    15  H    0.250318
    16  H   -0.050692
 Sum of Mulliken charges =  -0.00000

 Dipole moment (field-independent basis, Debye):
    X=              1.0988    Y=              0.4019    Z=              1.3266  Tot=              1.7688

 Test job not archived.
 1\1\GINC-SE232\SP\RHF\Aug-CC-pVDZ\C6H9N1\OHZDE\09-Apr-2025\0\\#t hf au
 g-cc-pvdz iop(5/13=1,5/36=2,99/5=2) pseudo=read geom=check guess=(read
 ,tcheck) scf=(maxcycle=1)\\title\\0,1\C,0,-2.66660955,-0.04408383,-0.0
 9686395\C,0,-1.76029871,0.87870523,-0.57507934\C,0,-0.70837087,1.50639
 274,0.07048889\C,0,0.54760954,1.0276207,0.31321701\C,0,0.93112124,-0.3
 2727088,0.01443744\C,0,2.40185942,-0.64520793,0.10046553\N,0,0.0509418
 4,-1.20669499,-0.33199901\H,0,-1.62642291,-0.66181909,-0.34422738\H,0,
 -2.84311258,-0.19285011,0.97185044\H,0,-3.44275588,-0.42108875,-0.7576

 Normal termination of Gaussian 16 at Wed Apr  9 18:13:28 2025.
