 Gaussian 16, Revision C.01,

 ----------------------------------------------------------------------
 #t hf aug-cc-pvdz symm=none int=(grid=ultrafine) guess=(read,tcheck) s
 table=(opt,rrhf)
 ----------------------------------------------------------------------
 -----
 title
 -----
 Symbolic Z-matrix:
 Charge =  0 Multiplicity = 1

 SCF Done:  E(RHF) =  -268.860408566     A.U. after   15 cycles
 Normal termination of Gaussian 16 at Wed Apr  9 03:05:25 2025.
 Gaussian 16:  ES64L-G16RevC.01  3-Jul-2019

 ----------------------------------------------------------------------
 #t hf aug-cc-pvdz iop(5/13=1,5/36=2,99/5=2) pseudo=read geom=check gue
 ss=(read,tcheck) scf=(maxcycle=1)
 ----------------------------------------------------------------------
 -----
 title
 -----
 Structure from the checkpoint file:  "Grambow2020_b97d3_006487_reverse_mol2.chk"
 Charge =  0 Multiplicity = 1

                         Standard orientation:
 ---------------------------------------------------------------------
 Center     Atomic      Atomic             Coordinates (Angstroms)
 Number     Number       Type             X           Y           Z
 ---------------------------------------------------------------------
      1          8           0       -2.631775    0.647723   -0.203323
      2          6           0       -1.697617    0.000804    0.124453
      3          6           0        1.769044    1.215742    0.050761
      4          6           0        1.834386   -0.315268    0.054701
      5          6           0        0.535927   -0.980357   -0.446950
      6          6           0       -0.652998   -0.731528    0.468572
      7          1           0        1.579711    1.596030   -0.964481
      8          1           0        2.711885    1.654772    0.405640
      9          1           0        2.665412   -0.654764   -0.584521
     10          1           0        2.053077   -0.677545    1.072019
     11          1           0        0.689531   -2.067679   -0.535147
     12          1           0        0.306985   -0.613153   -1.458447
     13          1           0       -0.643683   -1.131344    1.482718
     14          1           0        0.958834    1.575536    0.699577
 ---------------------------------------------------------------------

 SCF Done:  E(RHF) =  -269.139719442     A.U. after    2 cycles

 The electronic state is 1-A.
 Alpha  occ. eigenvalues --  -20.60696 -11.38511 -11.25915 -11.25131 -11.24048
 Alpha  occ. eigenvalues --  -11.22869  -1.53201  -1.10386  -1.02957  -0.92833
 Alpha  occ. eigenvalues --   -0.81333  -0.74649  -0.69167  -0.64410  -0.62837
 Alpha  occ. eigenvalues --   -0.60986  -0.59374  -0.56319  -0.53279  -0.50440
 Alpha  occ. eigenvalues --   -0.49420  -0.48704  -0.35011
 Alpha virt. eigenvalues --    0.03330   0.03709   0.03928   0.04432   0.06388
 Alpha virt. eigenvalues --    0.06843   0.07247   0.07486   0.08902   0.11510
 Alpha virt. eigenvalues --    0.12349   0.13493   0.14032   0.14630   0.14909

 Mulliken charges:
               1
     1  O   -0.906245
     2  C    0.191628
     3  C   -0.384498
     4  C   -0.429086
     5  C   -0.487936
     6  C    0.992738
     7  H    0.182681
     8  H    0.108804
     9  H    0.143373
    10  H    0.143473
    11  H    0.183306
    12  H    0.119944
    13  H   -0.076747
    14  H    0.218564
 Sum of Mulliken charges =  -0.00000

 Dipole moment (field-independent basis, Debye):
    X=              1.9555    Y=             -1.0500    Z=              0.4287  Tot=              2.2605

 Test job not archived.
 1\1\GINC-SE366\SP\RHF\Aug-CC-pVDZ\C5H8O1\OHZDE\09-Apr-2025\0\\#t hf au
 g-cc-pvdz iop(5/13=1,5/36=2,99/5=2) pseudo=read geom=check guess=(read
 ,tcheck) scf=(maxcycle=1)\\title\\0,1\O,0,0.86179231,2.98985791,1.3051
 6188\C,0,1.06264504,1.99753045,0.69398452\C,0,-1.58459031,-0.27089717,
 -0.46602359\C,0,-0.28258602,-1.07883738,-0.4488748\C,0,0.78922915,-0.4
 8456075,0.48816423\C,0,1.29066772,0.87703736,0.03182322\H,0,-2.0253240
 1,-0.2188776,0.54106663\H,0,-2.32650381,-0.72676882,-1.13638337\H,0,-0
 .48900439,-2.11204936,-0.1258738\H,0,0.12953822,-1.14548308,-1.4685410

 Normal termination of Gaussian 16 at Wed Apr  9 03:05:28 2025.
