 Gaussian 16, Revision C.01,

 ----------------------------------------------------------------------
 #t hf aug-cc-pvdz symm=none int=(grid=ultrafine) guess=(read,tcheck) s
 table=(opt,rrhf)
 ----------------------------------------------------------------------
 -----
 title
 -----
 Symbolic Z-matrix:
 Charge =  0 Multiplicity = 1

 SCF Done:  E(RHF) =  -344.690070157     A.U. after   15 cycles

 1\1\GINC-SE435\Stability\RHF\Aug-CC-pVDZ\C5H10O2\OHZDE\09-Apr-2025\0\\
 #t hf aug-cc-pvdz symm=none int=(grid=ultrafine) guess=(read,tcheck) s
 table=(opt,rrhf)\\title\\0,1\C,0,1.49319945,1.46985433,-0.58988685\O,0
 ,1.34486161,0.50070893,0.27112727\C,0,0.49787916,-0.46160907,0.2430542
 9\C,0,0.14419004,-1.38879351,1.36006831\O,0,-1.18322053,-1.48786991,0.
 80725772\C,0,-0.92267455,-0.53567861,-0.2515617\C,0,-1.78323933,0.7064
 8863,-0.13225348\H,0,1.90396161,-0.34799132,-1.97748309\H,0,0.73969596
 ,1.63723621,-1.34378152\H,0,2.29827384,2.14742729,-0.36724144\H,0,1.59

 Normal termination of Gaussian 16 at Wed Apr  9 03:27:31 2025.
 Gaussian 16:  ES64L-G16RevC.01  3-Jul-2019

 ----------------------------------------------------------------------
 #t hf aug-cc-pvdz iop(5/13=1,5/36=2,99/5=2) pseudo=read geom=check gue
 ss=(read,tcheck) scf=(maxcycle=1)
 ----------------------------------------------------------------------
 -----
 title
 -----
 Structure from the checkpoint file:  "Grambow2020_wb97xd3_006660_reverse_mol2.chk"
 Charge =  0 Multiplicity = 1

                         Standard orientation:
 ---------------------------------------------------------------------
 Center     Atomic      Atomic             Coordinates (Angstroms)
 Number     Number       Type             X           Y           Z
 ---------------------------------------------------------------------
      1          6           0       -2.324057    0.285556   -0.139653
      2          8           0       -1.367031   -0.574342   -0.357066
      3          6           0       -0.182501   -0.582726    0.133893
      4          6           0        0.985059   -1.389650   -0.333190
      5          8           0        1.850173   -0.326884    0.113510
      6          6           0        0.755891    0.532520    0.513037
      7          6           0        0.704376    1.812252   -0.297775
      8          1           0       -2.010430   -0.500999    2.024067
      9          1           0       -2.106374    1.213531    0.365935
     10          1           0       -3.247513    0.065196   -0.645114
     11          1           0       -1.314206   -0.809063    2.074847
     12          1           0        1.054059   -1.556608   -1.415282
     13          1           0        1.191033   -2.326025    0.193538
     14          1           0        0.822861    0.760791    1.582889
     15          1           0       -0.096212    2.469709    0.045186
     16          1           0        1.650829    2.340949   -0.176478
     17          1           0        0.558206    1.604615   -1.359014
 ---------------------------------------------------------------------

 SCF Done:  E(RHF) =  -345.047199844     A.U. after    2 cycles

 The electronic state is 1-A.
 Alpha  occ. eigenvalues --  -20.68243 -20.54995 -11.30681 -11.30514 -11.30067
 Alpha  occ. eigenvalues --  -11.29033 -11.23856  -1.60771  -1.47737  -1.06177
 Alpha  occ. eigenvalues --   -1.03172  -0.93605  -0.89315  -0.78636  -0.73531
 Alpha  occ. eigenvalues --   -0.72350  -0.69561  -0.64830  -0.62104  -0.59532
 Alpha  occ. eigenvalues --   -0.57163  -0.56200  -0.55516  -0.54049  -0.50709
 Alpha  occ. eigenvalues --   -0.47724  -0.43092  -0.25892
 Alpha virt. eigenvalues --    0.03632   0.03780   0.04223   0.04562   0.05954
 Alpha virt. eigenvalues --    0.06068   0.06669   0.07361   0.07989   0.08359
 Alpha virt. eigenvalues --    0.10254   0.10543   0.12772   0.13294   0.13704

 Mulliken charges:
               1
     1  C    0.464909
     2  O   -1.093287
     3  C    0.424707
     4  C    0.364962
     5  O   -1.397715
     6  C    0.802378
     7  C   -0.322889
     8  H   -0.014559
     9  H    0.045098
    10  H   -0.110322
    11  H    0.079580
    12  H    0.078572
    13  H    0.085119
    14  H    0.057929
    15  H    0.197111
    16  H    0.167975
    17  H    0.170430
 Sum of Mulliken charges =  -0.00000

 Dipole moment (field-independent basis, Debye):
    X=             -0.7479    Y=              0.6878    Z=             -0.6585  Tot=              1.2108

 Test job not archived.
 1\1\GINC-SE435\SP\RHF\Aug-CC-pVDZ\C5H10O2\OHZDE\09-Apr-2025\0\\#t hf a
 ug-cc-pvdz iop(5/13=1,5/36=2,99/5=2) pseudo=read geom=check guess=(rea
 d,tcheck) scf=(maxcycle=1)\\title\\0,1\C,0,1.49319945,1.46985433,-0.58
 988685\O,0,1.34486161,0.50070893,0.27112727\C,0,0.49787916,-0.46160907
 ,0.24305429\C,0,0.14419004,-1.38879351,1.36006831\O,0,-1.18322053,-1.4
 8786991,0.80725772\C,0,-0.92267455,-0.53567861,-0.2515617\C,0,-1.78323
 933,0.70648863,-0.13225348\H,0,1.90396161,-0.34799132,-1.97748309\H,0,
 0.73969596,1.63723621,-1.34378152\H,0,2.29827384,2.14742729,-0.3672414

 Normal termination of Gaussian 16 at Wed Apr  9 03:27:36 2025.
