 Gaussian 16, Revision C.01,

 ----------------------------------------------------------------------
 #t hf aug-cc-pvdz symm=none int=(grid=ultrafine) guess=(read,tcheck) s
 table=(opt,rrhf)
 ----------------------------------------------------------------------
 -----
 title
 -----
 Symbolic Z-matrix:
 Charge =  0 Multiplicity = 1

 SCF Done:  E(RHF) =  -359.674442814     A.U. after   14 cycles
 Normal termination of Gaussian 16 at Wed Apr  9 18:17:39 2025.
 Gaussian 16:  ES64L-G16RevC.01  3-Jul-2019

 ----------------------------------------------------------------------
 #t hf aug-cc-pvdz iop(5/13=1,5/36=2,99/5=2) pseudo=read geom=check gue
 ss=(read,tcheck) scf=(maxcycle=1)
 ----------------------------------------------------------------------
 -----
 title
 -----
 Structure from the checkpoint file:  "Grambow2020_wb97xd3_007284_reverse_mol2.chk"
 Charge =  0 Multiplicity = 1

                         Standard orientation:
 ---------------------------------------------------------------------
 Center     Atomic      Atomic             Coordinates (Angstroms)
 Number     Number       Type             X           Y           Z
 ---------------------------------------------------------------------
      1          8           0       -1.316588   -1.568033   -0.106117
      2          6           0       -0.293324   -0.756420    0.393343
      3          6           0        1.097539   -1.005122   -0.185115
      4          7           0        1.767014    0.237372    0.176294
      5          6           0       -1.573287    1.399533   -0.036008
      6          6           0       -0.444226    0.717452    0.090894
      7          8           0        0.780836    1.262707   -0.104286
      8          1           0       -1.569208   -1.236557   -0.972338
      9          1           0       -0.272751   -0.911548    1.474761
     10          1           0        1.611220   -1.847631    0.274742
     11          1           0        1.017509   -1.164665   -1.268989
     12          1           0        2.500186    0.463848   -0.485757
     13          1           0       -1.577743    2.448790   -0.294719
     14          1           0       -2.512497    0.896106    0.142780
 ---------------------------------------------------------------------

 SCF Done:  E(RHF) =  -360.042436424     A.U. after    2 cycles

 The electronic state is 1-A.
 Alpha  occ. eigenvalues --  -20.59834 -20.56616 -15.56913 -11.30961 -11.30651
 Alpha  occ. eigenvalues --  -11.27922 -11.22194  -1.53265  -1.47420  -1.17945
 Alpha  occ. eigenvalues --   -1.07659  -0.97833  -0.87213  -0.79655  -0.74148
 Alpha  occ. eigenvalues --   -0.72955  -0.67313  -0.63823  -0.62662  -0.60172
 Alpha  occ. eigenvalues --   -0.59860  -0.56601  -0.54911  -0.50384  -0.46941
 Alpha  occ. eigenvalues --   -0.44731  -0.34402
 Alpha virt. eigenvalues --    0.03395   0.04128   0.04622   0.04954   0.05771
 Alpha virt. eigenvalues --    0.06429   0.07141   0.09940   0.10881   0.12087
 Alpha virt. eigenvalues --    0.12958   0.13409   0.14200   0.15304   0.15693

 Mulliken charges:
               1
     1  O   -1.240616
     2  C    0.659864
     3  C   -0.365061
     4  N    0.663688
     5  C    0.138637
     6  C    1.153909
     7  O   -1.542520
     8  H    0.246652
     9  H    0.143342
    10  H    0.121225
    11  H    0.075435
    12  H    0.219656
    13  H   -0.153704
    14  H   -0.120507
 Sum of Mulliken charges =   0.00000

 Dipole moment (field-independent basis, Debye):
    X=              0.8269    Y=             -0.8898    Z=             -1.7769  Tot=              2.1524

 Test job not archived.
 1\1\GINC-SE028\SP\RHF\Aug-CC-pVDZ\C4H7N1O2\OHZDE\09-Apr-2025\0\\#t hf
 aug-cc-pvdz iop(5/13=1,5/36=2,99/5=2) pseudo=read geom=check guess=(re
 ad,tcheck) scf=(maxcycle=1)\\title\\0,1\O,0,1.3981954,-0.44770308,1.13
 262178\C,0,0.32032725,0.24537506,0.57307847\C,0,0.67154119,1.26272118,
 -0.50979821\N,0,-0.6246301,1.43123082,-1.15334169\C,0,-0.98928581,-1.8
 7550937,0.0655902\C,0,-0.66605288,-0.61487062,-0.18426933\O,0,-1.15281
 54,0.08351313,-1.23854466\H,0,1.66994877,-1.13254826,0.51523354\H,0,-0
 .18728415,0.75034481,1.39848056\H,0,1.0115489,2.21683508,-0.11077439\H

 Normal termination of Gaussian 16 at Wed Apr  9 18:17:44 2025.
