 Gaussian 16, Revision C.01,

 ----------------------------------------------------------------------
 #t hf aug-cc-pvdz symm=none int=(grid=ultrafine) guess=(read,tcheck) s
 table=(opt,rrhf)
 ----------------------------------------------------------------------
 -----
 title
 -----
 Symbolic Z-matrix:
 Charge =  0 Multiplicity = 1

 SCF Done:  E(RHF) =  -345.911508484     A.U. after   15 cycles

 1\1\GINC-SE224\Stability\RHF\Aug-CC-pVDZ\C5H12O2\OHZDE\09-Apr-2025\0\\
 #t hf aug-cc-pvdz symm=none int=(grid=ultrafine) guess=(read,tcheck) s
 table=(opt,rrhf)\\title\\0,1\C,0,2.26429094,-0.41109129,1.53090191\C,0
 ,0.53121377,0.71249364,0.77086143\C,0,0.20203795,-0.11700448,-0.385521
 68\O,0,0.26895372,-1.41177816,-0.13179488\C,0,-1.37532569,0.34389142,-
 0.4829238\C,0,-1.7856819,0.1688452,-1.93620441\O,0,-2.06195581,-0.4897
 2879,0.38463038\H,0,2.28641376,-0.99436492,2.45261951\H,0,3.16461951,-
 0.55595524,0.93472641\H,0,2.27525611,0.63616442,1.85347273\H,0,-0.0184

 Normal termination of Gaussian 16 at Wed Apr  9 18:49:04 2025.
 Gaussian 16:  ES64L-G16RevC.01  3-Jul-2019

 ----------------------------------------------------------------------
 #t hf aug-cc-pvdz iop(5/13=1,5/36=2,99/5=2) pseudo=read geom=check gue
 ss=(read,tcheck) scf=(maxcycle=1)
 ----------------------------------------------------------------------
 -----
 title
 -----
 Structure from the checkpoint file:  "Grambow2020_wb97xd3_008081_forward_mol1.chk"
 Charge =  0 Multiplicity = 1

                         Standard orientation:
 ---------------------------------------------------------------------
 Center     Atomic      Atomic             Coordinates (Angstroms)
 Number     Number       Type             X           Y           Z
 ---------------------------------------------------------------------
      1          6           0       -2.939367   -0.053940   -0.051398
      2          6           0       -0.996850   -0.103495    0.981963
      3          6           0       -0.152100   -0.541365   -0.126330
      4          8           0       -0.437964    0.061177   -1.266732
      5          6           0        1.253004    0.065621    0.479673
      6          6           0        2.373500   -0.782273   -0.100518
      7          8           0        1.296693    1.387612    0.068014
      8          1           0       -3.500169    0.847366   -0.303207
      9          1           0       -3.378812   -0.945713   -0.497080
     10          1           0       -3.049389   -0.167001    1.033051
     11          1           0       -1.047307    0.968429    1.144978
     12          1           0       -1.161863   -0.732871    1.854637
     13          1           0       -0.048277   -1.639565   -0.150479
     14          1           0       -1.955441    0.097633   -0.667319
     15          1           0        1.312517    0.047441    1.574748
     16          1           0        2.279833   -0.813916   -1.187127
     17          1           0        3.333249   -0.334055    0.160836
     18          1           0        2.342596   -1.801467    0.289584
     19          1           0        0.774110    1.376118   -0.763216
 ---------------------------------------------------------------------

 SCF Done:  E(RHF) =  -346.277982129     A.U. after    2 cycles

 The electronic state is 1-A.
 Alpha  occ. eigenvalues --  -20.52726 -20.44838 -11.37124 -11.29966 -11.28824
 Alpha  occ. eigenvalues --  -11.24323 -11.22262  -1.45142  -1.36389  -1.07986
 Alpha  occ. eigenvalues --   -1.01432  -0.96198  -0.84990  -0.80199  -0.71504
 Alpha  occ. eigenvalues --   -0.70216  -0.64395  -0.62596  -0.60437  -0.58716
 Alpha  occ. eigenvalues --   -0.57781  -0.55788  -0.53921  -0.52827  -0.51640
 Alpha  occ. eigenvalues --   -0.46197  -0.42388  -0.37118  -0.35934
 Alpha virt. eigenvalues --    0.01920   0.02954   0.03424   0.04415   0.05505
 Alpha virt. eigenvalues --    0.05868   0.06167   0.06665   0.06969   0.08169
 Alpha virt. eigenvalues --    0.08778   0.09174   0.10529   0.12497   0.13530

 Mulliken charges:
               1
     1  C   -0.473262
     2  C   -0.046024
     3  C    1.356363
     4  O   -1.675449
     5  C    0.986839
     6  C   -0.430212
     7  O   -1.440855
     8  H    0.165091
     9  H    0.135263
    10  H    0.178035
    11  H    0.185402
    12  H   -0.100721
    13  H    0.031041
    14  H    0.303605
    15  H   -0.037577
    16  H    0.216083
    17  H    0.150545
    18  H    0.197507
    19  H    0.298325
 Sum of Mulliken charges =  -0.00000

 Dipole moment (field-independent basis, Debye):
    X=             -2.4355    Y=             -1.9311    Z=              4.5597  Tot=              5.5183

 Test job not archived.
 1\1\GINC-SE224\SP\RHF\Aug-CC-pVDZ\C5H12O2\OHZDE\09-Apr-2025\0\\#t hf a
 ug-cc-pvdz iop(5/13=1,5/36=2,99/5=2) pseudo=read geom=check guess=(rea
 d,tcheck) scf=(maxcycle=1)\\title\\0,1\C,0,2.26429094,-0.41109129,1.53
 090191\C,0,0.53121377,0.71249364,0.77086143\C,0,0.20203795,-0.11700448
 ,-0.38552168\O,0,0.26895372,-1.41177816,-0.13179488\C,0,-1.37532569,0.
 34389142,-0.4829238\C,0,-1.7856819,0.1688452,-1.93620441\O,0,-2.061955
 81,-0.48972879,0.38463038\H,0,2.28641376,-0.99436492,2.45261951\H,0,3.
 16461951,-0.55595524,0.93472641\H,0,2.27525611,0.63616442,1.85347273\H

 Normal termination of Gaussian 16 at Wed Apr  9 18:49:12 2025.
