 Gaussian 16, Revision C.01,

 ----------------------------------------------------------------------
 #t hf aug-cc-pvdz symm=none int=(grid=ultrafine) guess=(read,tcheck) s
 table=(opt,rrhf)
 ----------------------------------------------------------------------
 -----
 title
 -----
 Symbolic Z-matrix:
 Charge =  0 Multiplicity = 1

 SCF Done:  E(RHF) =  -338.660052132     A.U. after   14 cycles
 Normal termination of Gaussian 16 at Wed Apr  9 03:52:33 2025.
 Gaussian 16:  ES64L-G16RevC.01  3-Jul-2019

 ----------------------------------------------------------------------
 #t hf aug-cc-pvdz iop(5/13=1,5/36=2,99/5=2) pseudo=read geom=check gue
 ss=(read,tcheck) scf=(maxcycle=1)
 ----------------------------------------------------------------------
 -----
 title
 -----
 Structure from the checkpoint file:  "Grambow2020_wb97xd3_008305_forward_mol1.chk"
 Charge =  0 Multiplicity = 1

                         Standard orientation:
 ---------------------------------------------------------------------
 Center     Atomic      Atomic             Coordinates (Angstroms)
 Number     Number       Type             X           Y           Z
 ---------------------------------------------------------------------
      1          6           0        2.439684   -0.343858    0.019527
      2          8           0        1.454450    0.682039   -0.012069
      3          6           0        0.188753    0.273526   -0.015331
      4          6           0       -0.918740    1.120682   -0.017270
      5          7           0       -2.085737    0.244361   -0.063615
      6          6           0       -1.524285   -0.969850   -0.014488
      7          7           0       -0.191919   -1.004274   -0.016466
      8          1           0        2.337367   -0.950271    0.920850
      9          1           0        3.398410    0.168516    0.014021
     10          1           0        2.350751   -0.992017   -0.853375
     11          1           0       -1.008222    2.169192   -0.248627
     12          1           0       -1.753164    0.847788    0.946331
     13          1           0       -2.129614   -1.863128    0.043294
 ---------------------------------------------------------------------

 SCF Done:  E(RHF) =  -339.007574492     A.U. after    2 cycles

 The electronic state is 1-A.
 Alpha  occ. eigenvalues --  -20.58621 -15.53730 -15.50525 -11.34083 -11.30364
 Alpha  occ. eigenvalues --  -11.29506 -11.28018  -1.52449  -1.34829  -1.18601
 Alpha  occ. eigenvalues --   -1.03605  -0.95492  -0.84999  -0.82140  -0.75736
 Alpha  occ. eigenvalues --   -0.69852  -0.67495  -0.65085  -0.62713  -0.60068
 Alpha  occ. eigenvalues --   -0.54211  -0.52004  -0.51471  -0.49768  -0.46153
 Alpha  occ. eigenvalues --   -0.34201
 Alpha virt. eigenvalues --    0.03499   0.04244   0.04693   0.05398   0.05915
 Alpha virt. eigenvalues --    0.06140   0.08655   0.09431   0.10488   0.11247
 Alpha virt. eigenvalues --    0.12357   0.13417   0.14060   0.14775   0.15417

 Mulliken charges:
               1
     1  C    0.180247
     2  O   -1.436076
     3  C    0.401463
     4  C   -0.474153
     5  N    0.347919
     6  C   -0.739437
     7  N    0.880027
     8  H    0.184426
     9  H   -0.013428
    10  H    0.202593
    11  H   -0.160288
    12  H    0.719304
    13  H   -0.092599
 Sum of Mulliken charges =  -0.00000

 Dipole moment (field-independent basis, Debye):
    X=              1.1486    Y=              0.4672    Z=              0.8114  Tot=              1.4818

 Test job not archived.
 1\1\GINC-SE456\SP\RHF\Aug-CC-pVDZ\C4H6N2O1\OHZDE\09-Apr-2025\0\\#t hf
 aug-cc-pvdz iop(5/13=1,5/36=2,99/5=2) pseudo=read geom=check guess=(re
 ad,tcheck) scf=(maxcycle=1)\\title\\0,1\C,0,2.21447465,0.24959914,-0.4
 4442445\O,0,1.24216754,-0.75840549,-0.19403357\C,0,0.00331824,-0.32931
 639,0.02961159\C,0,-1.09284645,-1.15767858,0.26722355\N,0,-2.22204996,
 -0.26129293,0.49822479\C,0,-1.66748842,0.94126297,0.30259513\N,0,-0.35
 775313,0.95388971,0.05597377\H,0,1.9522557,0.82746354,-1.33206257\H,0,
 3.15232927,-0.27795883,-0.59878248\H,0,2.29599568,0.92764467,0.4062133

 Normal termination of Gaussian 16 at Wed Apr  9 03:52:37 2025.
