 Gaussian 16, Revision C.01,

 ----------------------------------------------------------------------
 #t hf aug-cc-pvdz symm=none int=(grid=ultrafine) guess=(read,tcheck) s
 table=(opt,rrhf)
 ----------------------------------------------------------------------
 -----
 title
 -----
 Symbolic Z-matrix:
 Charge =  0 Multiplicity = 1

 SCF Done:  E(RHF) =  -354.666432034     A.U. after   14 cycles
 Normal termination of Gaussian 16 at Wed Apr  9 18:19:03 2025.
 Gaussian 16:  ES64L-G16RevC.01  3-Jul-2019

 ----------------------------------------------------------------------
 #t hf aug-cc-pvdz iop(5/13=1,5/36=2,99/5=2) pseudo=read geom=check gue
 ss=(read,tcheck) scf=(maxcycle=1)
 ----------------------------------------------------------------------
 -----
 title
 -----
 Structure from the checkpoint file:  "Grambow2020_wb97xd3_007310_reverse_mol2.chk"
 Charge =  0 Multiplicity = 1

                         Standard orientation:
 ---------------------------------------------------------------------
 Center     Atomic      Atomic             Coordinates (Angstroms)
 Number     Number       Type             X           Y           Z
 ---------------------------------------------------------------------
      1          8           0       -2.017136   -0.755449    0.001815
      2          6           0       -1.841573    0.680293    0.011885
      3          6           0       -0.388616    0.370295   -0.006856
      4          7           0       -0.599895   -0.909854   -0.015510
      5          7           0        2.091115   -0.807667    0.007929
      6          6           0        1.878303    0.514273   -0.000206
      7          7           0        0.741203    1.124701   -0.009159
      8          1           0        1.307662   -1.449322    0.007927
      9          1           0       -2.233981    1.139093    0.920122
     10          1           0       -2.256024    1.152927   -0.879193
     11          1           0        3.027105   -1.165989    0.023768
     12          1           0        2.776686    1.127466    0.001086
 ---------------------------------------------------------------------

 SCF Done:  E(RHF) =  -355.024907707     A.U. after    2 cycles

 The electronic state is 1-A.
 Alpha  occ. eigenvalues --  -20.56916 -15.54978 -15.54436 -15.49410 -11.35712
 Alpha  occ. eigenvalues --  -11.31136 -11.30018  -1.51739  -1.30791  -1.21210
 Alpha  occ. eigenvalues --   -1.12509  -0.98940  -0.91319  -0.81082  -0.79822
 Alpha  occ. eigenvalues --   -0.71013  -0.69113  -0.68233  -0.65351  -0.60424
 Alpha  occ. eigenvalues --   -0.53494  -0.51665  -0.49617  -0.47644  -0.47241
 Alpha  occ. eigenvalues --   -0.37250
 Alpha virt. eigenvalues --    0.02531   0.04293   0.04859   0.05566   0.06323
 Alpha virt. eigenvalues --    0.07678   0.08903   0.09426   0.10341   0.11691
 Alpha virt. eigenvalues --    0.13373   0.14029   0.15615   0.16381   0.16708

 Mulliken charges:
               1
     1  O   -1.455331
     2  C    1.008187
     3  C   -1.986883
     4  N    1.313665
     5  N    0.638870
     6  C   -0.956554
     7  N    0.928418
     8  H    0.112651
     9  H    0.176306
    10  H    0.175723
    11  H    0.097663
    12  H   -0.052715
 Sum of Mulliken charges =  -0.00000

 Dipole moment (field-independent basis, Debye):
    X=              3.5560    Y=              1.0059    Z=              0.0862  Tot=              3.6966

 Test job not archived.
 1\1\GINC-SE103\SP\RHF\Aug-CC-pVDZ\C3H5N3O1\OHZDE\09-Apr-2025\0\\#t hf
 aug-cc-pvdz iop(5/13=1,5/36=2,99/5=2) pseudo=read geom=check guess=(re
 ad,tcheck) scf=(maxcycle=1)\\title\\0,1\O,0,-2.18661964,0.83802806,-0.
 47920794\C,0,-2.04300525,-0.40852507,0.24034673\C,0,-0.58581709,-0.210
 32985,0.02856134\N,0,-0.76849186,0.90388297,-0.61069977\N,0,1.91188582
 ,0.66088273,-0.70584319\C,0,1.67179311,-0.4580298,-0.01066504\N,0,0.52
 509177,-0.91671664,0.36400872\H,0,1.14419938,1.25324143,-0.9978834\H,0
 ,-2.50599985,-1.24513037,-0.28415536\H,0,-2.40597691,-0.33699896,1.266

 Normal termination of Gaussian 16 at Wed Apr  9 18:19:07 2025.
