 Gaussian 16, Revision C.01,

 ----------------------------------------------------------------------
 #t hf aug-cc-pvdz symm=none int=(grid=ultrafine) guess=(read,tcheck) s
 table=(opt,rrhf)
 ----------------------------------------------------------------------
 -----
 title
 -----
 Symbolic Z-matrix:
 Charge =  0 Multiplicity = 1

 SCF Done:  E(RHF) =  -358.516225339     A.U. after   15 cycles
 Normal termination of Gaussian 16 at Wed Apr  9 04:04:29 2025.
 Gaussian 16:  ES64L-G16RevC.01  3-Jul-2019

 ----------------------------------------------------------------------
 #t hf aug-cc-pvdz iop(5/13=1,5/36=2,99/5=2) pseudo=read geom=check gue
 ss=(read,tcheck) scf=(maxcycle=1)
 ----------------------------------------------------------------------
 -----
 title
 -----
 Structure from the checkpoint file:  "Grambow2020_wb97xd3_009141_forward_mol1.chk"
 Charge =  0 Multiplicity = 1

                         Standard orientation:
 ---------------------------------------------------------------------
 Center     Atomic      Atomic             Coordinates (Angstroms)
 Number     Number       Type             X           Y           Z
 ---------------------------------------------------------------------
      1          6           0        2.438637   -0.409297   -0.103340
      2          6           0        1.021097    0.015673    0.090391
      3          6           0        0.502939    1.329631   -0.059604
      4          8           0       -0.860978    1.140786   -0.038612
      5          6           0       -1.221072   -0.190375   -0.017779
      6          8           0       -2.338059   -0.598856   -0.042186
      7          7           0       -0.035388   -0.884596    0.052206
      8          1           0        2.737454   -1.174853    0.613682
      9          1           0        2.559452   -0.809894   -1.110402
     10          1           0        3.089336    0.457268    0.002963
     11          1           0        1.007856    0.785989    1.110760
     12          1           0       -0.003698   -1.875569    0.205944
 ---------------------------------------------------------------------

 SCF Done:  E(RHF) =  -358.873985448     A.U. after    2 cycles

 The electronic state is 1-A.
 Alpha  occ. eigenvalues --  -20.61835 -20.54007 -15.57496 -11.43057 -11.34525
 Alpha  occ. eigenvalues --  -11.31476 -11.28262  -1.58041  -1.48524  -1.30473
 Alpha  occ. eigenvalues --   -1.11531  -0.99665  -0.90852  -0.86177  -0.78520
 Alpha  occ. eigenvalues --   -0.71996  -0.67768  -0.65061  -0.63243  -0.60763
 Alpha  occ. eigenvalues --   -0.58213  -0.54774  -0.53411  -0.48874  -0.42855
 Alpha  occ. eigenvalues --   -0.40283
 Alpha virt. eigenvalues --    0.01888   0.03608   0.03778   0.04853   0.06243
 Alpha virt. eigenvalues --    0.08744   0.09015   0.09810   0.10588   0.12023
 Alpha virt. eigenvalues --    0.12555   0.13287   0.14206   0.15023   0.15336

 Mulliken charges:
               1
     1  C   -0.136637
     2  C   -1.080953
     3  C    0.190853
     4  O   -1.233743
     5  C    1.405522
     6  O   -1.174230
     7  N    0.939083
     8  H    0.182384
     9  H    0.235647
    10  H    0.208530
    11  H    0.469296
    12  H   -0.005752
 Sum of Mulliken charges =  -0.00000

 Dipole moment (field-independent basis, Debye):
    X=              4.9019    Y=             -3.4117    Z=              0.9110  Tot=              6.0414

 Test job not archived.
 1\1\GINC-SE424\SP\RHF\Aug-CC-pVDZ\C4H5N1O2\OHZDE\09-Apr-2025\0\\#t hf
 aug-cc-pvdz iop(5/13=1,5/36=2,99/5=2) pseudo=read geom=check guess=(re
 ad,tcheck) scf=(maxcycle=1)\\title\\0,1\C,0,-1.60453326,-0.21938758,-0
 .5958483\C,0,-0.26080972,0.20442953,-0.10357216\C,0,0.06364242,1.44260
 419,0.51216165\O,0,1.33025298,1.23119675,1.00953132\C,0,1.75701182,-0.
 07202076,0.86258145\O,0,2.79466287,-0.50190281,1.25449023\N,0,0.749143
 54,-0.70706965,0.17439425\H,0,-1.53763116,-0.80486255,-1.51357951\H,0,
 -2.09276703,-0.82513911,0.16831203\H,0,-2.2142883,0.66452368,-0.776249

 Normal termination of Gaussian 16 at Wed Apr  9 04:04:34 2025.
