 Gaussian 16, Revision C.01,

 ----------------------------------------------------------------------
 #t hf aug-cc-pvdz symm=none int=(grid=ultrafine) guess=(read,tcheck) s
 table=(opt,rrhf)
 ----------------------------------------------------------------------
 -----
 title
 -----
 Symbolic Z-matrix:
 Charge =  0 Multiplicity = 1

 SCF Done:  E(RHF) =  -346.041849011     A.U. after   13 cycles

 1\1\GINC-SE162\Stability\RHF\Aug-CC-pVDZ\C5H12O2\OHZDE\09-Apr-2025\0\\
 #t hf aug-cc-pvdz symm=none int=(grid=ultrafine) guess=(read,tcheck) s
 table=(opt,rrhf)\\title\\0,1\C,0,2.23849167,0.446878,1.20124171\C,0,0.
 82454984,0.50293313,0.6424013\C,0,0.4699744,-0.74000547,-0.17663575\O,
 0,0.56958571,-1.92581798,0.59010156\C,0,-0.90154693,-0.61919936,-0.788
 01409\C,0,-1.14999383,-0.41721622,-2.074656\O,0,-1.86088469,-0.7236437
 8,0.17597185\H,0,2.37150312,-0.43147472,1.83332797\H,0,2.97636712,0.39
 194261,0.39696347\H,0,2.45970304,1.33354361,1.79746519\H,0,0.09754881,

 Normal termination of Gaussian 16 at Wed Apr  9 18:48:58 2025.
 Gaussian 16:  ES64L-G16RevC.01  3-Jul-2019

 ----------------------------------------------------------------------
 #t hf aug-cc-pvdz iop(5/13=1,5/36=2,99/5=2) pseudo=read geom=check gue
 ss=(read,tcheck) scf=(maxcycle=1)
 ----------------------------------------------------------------------
 -----
 title
 -----
 Structure from the checkpoint file:  "Grambow2020_wb97xd3_008078_reverse_mol2.chk"
 Charge =  0 Multiplicity = 1

                         Standard orientation:
 ---------------------------------------------------------------------
 Center     Atomic      Atomic             Coordinates (Angstroms)
 Number     Number       Type             X           Y           Z
 ---------------------------------------------------------------------
      1          6           0       -2.647697    0.508824    0.190591
      2          6           0       -1.165459    0.765837   -0.036551
      3          6           0       -0.297241   -0.430006    0.360437
      4          8           0       -0.635756   -1.595514   -0.368232
      5          6           0        1.168271   -0.116989    0.206345
      6          6           0        2.016050    0.085267    1.205512
      7          8           0        1.501364   -0.046402   -1.114477
      8          1           0       -2.981716   -0.361815   -0.374341
      9          1           0       -2.855715    0.319189    1.246578
     10          1           0       -3.246213    1.367092   -0.118842
     11          1           0       -0.976255    1.001514   -1.088671
     12          1           0       -0.835789    1.634199    0.541720
     13          1           0       -0.481008   -0.674957    1.408896
     14          1           0       -0.293344   -1.489517   -1.260232
     15          1           0        1.441165    2.667400   -1.007539
     16          1           0        3.054767    0.345405    1.036499
     17          1           0        1.678242    3.367864   -1.102350
     18          1           0        1.679894   -0.006287    2.227850
     19          1           0        2.447560    0.087641   -1.205901
 ---------------------------------------------------------------------

 SCF Done:  E(RHF) =  -346.410044043     A.U. after    2 cycles

 The electronic state is 1-A.
 Alpha  occ. eigenvalues --  -20.58946 -20.54466 -11.30962 -11.29259 -11.22946
 Alpha  occ. eigenvalues --  -11.22612 -11.21942  -1.50879  -1.44908  -1.08041
 Alpha  occ. eigenvalues --   -1.02958  -0.93251  -0.83372  -0.81211  -0.69935
 Alpha  occ. eigenvalues --   -0.69596  -0.64038  -0.63651  -0.61089  -0.59966
 Alpha  occ. eigenvalues --   -0.57910  -0.56420  -0.55462  -0.53232  -0.52238
 Alpha  occ. eigenvalues --   -0.48951  -0.48376  -0.43682  -0.35826
 Alpha virt. eigenvalues --    0.03191   0.03753   0.04114   0.04593   0.05741
 Alpha virt. eigenvalues --    0.05986   0.06652   0.06960   0.08097   0.08607
 Alpha virt. eigenvalues --    0.09314   0.11025   0.12896   0.13430   0.14496

 Mulliken charges:
               1
     1  C   -0.467062
     2  C   -0.443538
     3  C    0.851710
     4  O   -1.383309
     5  C    2.179154
     6  C   -0.207312
     7  O   -1.666731
     8  H    0.206341
     9  H    0.166569
    10  H    0.129401
    11  H    0.137740
    12  H    0.158074
    13  H    0.012462
    14  H    0.283528
    15  H   -0.033006
    16  H   -0.217162
    17  H    0.024196
    18  H   -0.115515
    19  H    0.384460
 Sum of Mulliken charges =   0.00000

 Dipole moment (field-independent basis, Debye):
    X=              1.5209    Y=              1.3929    Z=             -0.2843  Tot=              2.0818

 Test job not archived.
 1\1\GINC-SE162\SP\RHF\Aug-CC-pVDZ\C5H12O2\OHZDE\09-Apr-2025\0\\#t hf a
 ug-cc-pvdz iop(5/13=1,5/36=2,99/5=2) pseudo=read geom=check guess=(rea
 d,tcheck) scf=(maxcycle=1)\\title\\0,1\C,0,2.23849167,0.446878,1.20124
 171\C,0,0.82454984,0.50293313,0.6424013\C,0,0.4699744,-0.74000547,-0.1
 7663575\O,0,0.56958571,-1.92581798,0.59010156\C,0,-0.90154693,-0.61919
 936,-0.78801409\C,0,-1.14999383,-0.41721622,-2.074656\O,0,-1.86088469,
 -0.72364378,0.17597185\H,0,2.37150312,-0.43147472,1.83332797\H,0,2.976
 36712,0.39194261,0.39696347\H,0,2.45970304,1.33354361,1.79746519\H,0,0

 Normal termination of Gaussian 16 at Wed Apr  9 18:49:05 2025.
