 Gaussian 16, Revision C.01,

 ----------------------------------------------------------------------
 #t hf aug-cc-pvdz symm=none int=(grid=ultrafine) guess=(read,tcheck) s
 table=(opt,rrhf)
 ----------------------------------------------------------------------
 -----
 title
 -----
 Symbolic Z-matrix:
 Charge =  0 Multiplicity = 1

 SCF Done:  E(RHF) =  -289.017807587     A.U. after   15 cycles

 1\1\GINC-SE396\Stability\RHF\Aug-CC-pVDZ\C6H13N1\OHZDE\09-Apr-2025\0\\
 #t hf aug-cc-pvdz symm=none int=(grid=ultrafine) guess=(read,tcheck) s
 table=(opt,rrhf)\\title\\0,1\C,0,-1.7061035,1.84946971,0.58294514\C,0,
 -0.75921616,0.67937868,0.63347927\N,0,-0.86175497,-0.32403974,-0.42725
 458\C,0,-1.02176077,-1.69837384,-0.29192013\C,0,0.26170834,0.35541138,
 -0.36965044\C,0,1.53116342,-1.37615764,0.66475441\C,0,1.27926765,0.900
 00004,-1.2833935\H,0,-2.6628109,1.60046113,1.04762916\H,0,-1.28421239,
 2.70116712,1.12048973\H,0,-1.8924971,2.15167501,-0.44843759\H,0,-0.563

 Normal termination of Gaussian 16 at Wed Apr  9 04:05:10 2025.
 Gaussian 16:  ES64L-G16RevC.01  3-Jul-2019

 ----------------------------------------------------------------------
 #t hf aug-cc-pvdz iop(5/13=1,5/36=2,99/5=2) pseudo=read geom=check gue
 ss=(read,tcheck) scf=(maxcycle=1)
 ----------------------------------------------------------------------
 -----
 title
 -----
 Structure from the checkpoint file:  "Grambow2020_wb97xd3_009136_reverse_mol1.chk"
 Charge =  0 Multiplicity = 1

                         Standard orientation:
 ---------------------------------------------------------------------
 Center     Atomic      Atomic             Coordinates (Angstroms)
 Number     Number       Type             X           Y           Z
 ---------------------------------------------------------------------
      1          6           0       -2.461524   -0.009369    0.387541
      2          6           0       -0.975344   -0.190777    0.550710
      3          7           0       -0.208951   -0.609942   -0.623794
      4          6           0        0.656303   -1.691974   -0.738915
      5          6           0        0.065849    0.580110   -0.138609
      6          6           0        2.071484   -0.074971    0.969604
      7          6           0        0.469748    1.910888   -0.621127
      8          1           0       -2.988164   -0.958996    0.506215
      9          1           0       -2.843400    0.681968    1.141568
     10          1           0       -2.695830    0.393474   -0.598684
     11          1           0       -0.661795   -0.642294    1.495668
     12          1           0        1.254568   -1.664632   -1.649133
     13          1           0        1.477960   -1.083089    0.242891
     14          1           0        0.169641   -2.652939   -0.586045
     15          1           0        1.629202    0.517852    1.771536
     16          1           0        2.727002   -0.807735    1.451696
     17          1           0        2.697564    0.568205    0.349641
     18          1           0       -0.393493    2.491535   -0.959379
     19          1           0        1.180057    1.818057   -1.442755
     20          1           0        0.950246    2.464752    0.188119
 ---------------------------------------------------------------------

 SCF Done:  E(RHF) =  -289.338910514     A.U. after    2 cycles

 The electronic state is 1-A.
 Alpha  occ. eigenvalues --  -15.54286 -11.30710 -11.28813 -11.25782 -11.23722
 Alpha  occ. eigenvalues --  -11.23175 -11.19026  -1.34338  -1.05068  -1.02376
 Alpha  occ. eigenvalues --   -0.97350  -0.89974  -0.81815  -0.74899  -0.69891
 Alpha  occ. eigenvalues --   -0.65890  -0.63441  -0.60801  -0.58974  -0.57685
 Alpha  occ. eigenvalues --   -0.57553  -0.54496  -0.51763  -0.50956  -0.49930
 Alpha  occ. eigenvalues --   -0.46175  -0.39812  -0.27463
 Alpha virt. eigenvalues --    0.03254   0.03694   0.04146   0.04263   0.05335
 Alpha virt. eigenvalues --    0.05442   0.05767   0.06084   0.06849   0.08997
 Alpha virt. eigenvalues --    0.09382   0.09639   0.09894   0.11486   0.11791

 Mulliken charges:
               1
     1  C   -0.506190
     2  C   -0.310841
     3  N    1.172676
     4  C   -0.600559
     5  C   -0.782838
     6  C   -0.497524
     7  C   -0.687769
     8  H    0.223945
     9  H    0.271149
    10  H    0.171966
    11  H   -0.246536
    12  H   -0.008422
    13  H    1.070182
    14  H   -0.078143
    15  H    0.095344
    16  H   -0.138068
    17  H    0.098352
    18  H    0.212876
    19  H    0.251841
    20  H    0.288558
 Sum of Mulliken charges =  -0.00000

 Dipole moment (field-independent basis, Debye):
    X=             -1.7046    Y=              1.6203    Z=             -0.0387  Tot=              2.3521

 Test job not archived.
 1\1\GINC-SE396\SP\RHF\Aug-CC-pVDZ\C6H13N1\OHZDE\09-Apr-2025\0\\#t hf a
 ug-cc-pvdz iop(5/13=1,5/36=2,99/5=2) pseudo=read geom=check guess=(rea
 d,tcheck) scf=(maxcycle=1)\\title\\0,1\C,0,-1.7061035,1.84946971,0.582
 94514\C,0,-0.75921616,0.67937868,0.63347927\N,0,-0.86175497,-0.3240397
 4,-0.42725458\C,0,-1.02176077,-1.69837384,-0.29192013\C,0,0.26170834,0
 .35541138,-0.36965044\C,0,1.53116342,-1.37615764,0.66475441\C,0,1.2792
 6765,0.90000004,-1.2833935\H,0,-2.6628109,1.60046113,1.04762916\H,0,-1
 .28421239,2.70116712,1.12048973\H,0,-1.8924971,2.15167501,-0.44843759\

 Normal termination of Gaussian 16 at Wed Apr  9 04:05:18 2025.
