 Gaussian 16, Revision C.01,

 ----------------------------------------------------------------------
 #t hf aug-cc-pvdz symm=none int=(grid=ultrafine) guess=(read,tcheck) s
 table=(opt,rrhf)
 ----------------------------------------------------------------------
 -----
 title
 -----
 Symbolic Z-matrix:
 Charge =  0 Multiplicity = 1

 SCF Done:  E(RHF) =  -248.938302778     A.U. after   12 cycles
 Normal termination of Gaussian 16 at Wed Apr  9 03:06:53 2025.
 Gaussian 16:  ES64L-G16RevC.01  3-Jul-2019

 ----------------------------------------------------------------------
 #t hf aug-cc-pvdz iop(5/13=1,5/36=2,99/5=2) pseudo=read geom=check gue
 ss=(read,tcheck) scf=(maxcycle=1)
 ----------------------------------------------------------------------
 -----
 title
 -----
 Structure from the checkpoint file:  "Grambow2020_b97d3_006548_forward_mol2.chk"
 Charge =  0 Multiplicity = 1

                         Standard orientation:
 ---------------------------------------------------------------------
 Center     Atomic      Atomic             Coordinates (Angstroms)
 Number     Number       Type             X           Y           Z
 ---------------------------------------------------------------------
      1          6           0        2.009392   -0.000238   -0.000102
      2          6           0        0.495857   -0.000108    0.000263
      3          6           0       -0.483593   -0.724473   -0.955068
      4          7           0       -1.462087    0.000325   -0.000159
      5          6           0       -0.483448   -0.464985    1.104958
      6          6           0       -0.482827    1.189284   -0.149745
      7          1           0        2.400467    0.613355    0.824741
      8          1           0        2.398972    0.408084   -0.944141
      9          1           0        2.401094   -1.021182    0.118053
     10          1           0       -0.549826   -0.373039   -1.994633
     11          1           0       -0.550042   -1.820273   -0.896538
     12          1           0       -0.549736   -1.540946    1.320360
     13          1           0       -0.549815    0.133543    2.024623
     14          1           0       -0.548885    1.913848    0.674353
     15          1           0       -0.549912    1.687449   -1.127544
 ---------------------------------------------------------------------

 SCF Done:  E(RHF) =  -249.206427405     A.U. after    2 cycles

 The electronic state is 1-A.
 Alpha  occ. eigenvalues --  -15.50638 -11.26500 -11.26500 -11.26357 -11.25793
 Alpha  occ. eigenvalues --  -11.23541  -1.28824  -1.01114  -0.92226  -0.92223
 Alpha  occ. eigenvalues --   -0.87505  -0.75552  -0.64236  -0.64231  -0.61783
 Alpha  occ. eigenvalues --   -0.58531  -0.58527  -0.51151  -0.50315  -0.50302
 Alpha  occ. eigenvalues --   -0.45639  -0.45619  -0.40437
 Alpha virt. eigenvalues --    0.03247   0.04073   0.04074   0.04270   0.05783
 Alpha virt. eigenvalues --    0.05783   0.06913   0.06915   0.09474   0.09665
 Alpha virt. eigenvalues --    0.12817   0.13148   0.13149   0.14012   0.15178

 Mulliken charges:
               1
     1  C   -0.647009
     2  C    0.233165
     3  C   -0.051611
     4  N    0.165958
     5  C   -0.050987
     6  C   -0.051602
     7  H    0.218565
     8  H    0.218781
     9  H    0.218148
    10  H   -0.042242
    11  H   -0.042078
    12  H   -0.042187
    13  H   -0.042048
    14  H   -0.042454
    15  H   -0.042399
 Sum of Mulliken charges =   0.00000

 Dipole moment (field-independent basis, Debye):
    X=              2.6356    Y=             -0.0009    Z=              0.0006  Tot=              2.6356

 Test job not archived.
 1\1\GINC-SE458\SP\RHF\Aug-CC-pVDZ\C5H9N1\OHZDE\09-Apr-2025\0\\#t hf au
 g-cc-pvdz iop(5/13=1,5/36=2,99/5=2) pseudo=read geom=check guess=(read
 ,tcheck) scf=(maxcycle=1)\\title\\0,1\C,0,1.76228662,-0.11021674,-0.19
 39657\C,0,0.26073472,-0.01602281,-0.02886557\C,0,-0.5838226,-0.0199367
 9,1.26859033\N,0,-1.68169962,0.10504965,0.18522573\C,0,-0.70417834,1.1
 1157618,-0.46814095\C,0,-0.84390585,-0.95769397,-0.56552504\H,0,2.0418
 9723,-0.06957731,-1.25696587\H,0,2.14181528,-1.05444721,0.22328132\H,0
 ,2.26612821,0.71911019,0.32379779\H,0,-0.64561096,-0.95415494,1.844790

 Normal termination of Gaussian 16 at Wed Apr  9 03:06:58 2025.
