 Gaussian 16, Revision C.01,

 ----------------------------------------------------------------------
 #t hf aug-cc-pvdz symm=none int=(grid=ultrafine) guess=(read,tcheck) s
 table=(opt,rrhf)
 ----------------------------------------------------------------------
 -----
 title
 -----
 Symbolic Z-matrix:
 Charge =  0 Multiplicity = 1

 SCF Done:  E(RHF) =  -245.675833347     A.U. after   14 cycles
 Normal termination of Gaussian 16 at Wed Apr  9 16:28:41 2025.
 Gaussian 16:  ES64L-G16RevC.01  3-Jul-2019

 ----------------------------------------------------------------------
 #t hf aug-cc-pvdz iop(5/13=1,5/36=2,99/5=2) pseudo=read geom=check gue
 ss=(read,tcheck) scf=(maxcycle=1)
 ----------------------------------------------------------------------
 -----
 title
 -----
 Structure from the checkpoint file:  "Grambow2020_wb97xd3_006122_reverse_mol1.chk"
 Charge =  0 Multiplicity = 1

                         Standard orientation:
 ---------------------------------------------------------------------
 Center     Atomic      Atomic             Coordinates (Angstroms)
 Number     Number       Type             X           Y           Z
 ---------------------------------------------------------------------
      1          6           0       -1.031800   -0.548028   -0.173664
      2          6           0       -0.706849    0.927024   -0.149075
      3          7           0        0.726660    1.018109    0.163178
      4          6           0        1.138357   -0.162907    0.077109
      5          8           0        0.194700   -1.141068   -0.196200
      6          1           0       -1.299754   -0.625820    1.528453
      7          1           0       -1.724200   -0.982175    0.847314
      8          1           0       -0.849952    1.309012   -1.166558
      9          1           0       -1.322151    1.526828    0.515728
     10          1           0        2.153593   -0.522592    0.176196
 ---------------------------------------------------------------------

 SCF Done:  E(RHF) =  -245.926072580     A.U. after    2 cycles

 The electronic state is 1-A.
 Alpha  occ. eigenvalues --  -20.61488 -15.51294 -11.35243 -11.32892 -11.28248
 Alpha  occ. eigenvalues --   -1.56016  -1.25432  -1.04420  -0.87679  -0.82939
 Alpha  occ. eigenvalues --   -0.75172  -0.71725  -0.63192  -0.62081  -0.58454
 Alpha  occ. eigenvalues --   -0.54791  -0.50606  -0.44746  -0.36502
 Alpha virt. eigenvalues --    0.03309   0.04261   0.04791   0.05509   0.06824
 Alpha virt. eigenvalues --    0.08965   0.09403   0.10425   0.10525   0.11975
 Alpha virt. eigenvalues --    0.14122   0.15417   0.15664   0.16309   0.16679

 Mulliken charges:
               1
     1  C    0.434230
     2  C   -0.653209
     3  N    0.580266
     4  C    0.302015
     5  O   -1.235318
     6  H    0.050762
     7  H    0.250138
     8  H    0.184851
     9  H    0.040685
    10  H    0.045579
 Sum of Mulliken charges =  -0.00000

 Dipole moment (field-independent basis, Debye):
    X=              0.1106    Y=             -0.3757    Z=              0.4922  Tot=              0.6290

 Test job not archived.
 1\1\GINC-SE043\SP\RHF\Aug-CC-pVDZ\C3H5N1O1\OHZDE\09-Apr-2025\0\\#t hf
 aug-cc-pvdz iop(5/13=1,5/36=2,99/5=2) pseudo=read geom=check guess=(re
 ad,tcheck) scf=(maxcycle=1)\\title\\0,1\C,0,-0.70815405,-0.50192964,-0
 .60513538\C,0,-0.56061626,0.81687215,0.116647\N,0,0.86372591,0.9293744
 4,0.46210021\C,0,1.40926642,-0.01138063,-0.16165264\O,0,0.57823828,-0.
 85648168,-0.88080509\H,0,-0.89269229,-1.40163045,0.85484416\H,0,-1.300
 05506,-1.44688379,0.07824819\H,0,-0.79114129,1.61008787,-0.60400055\H,
 0,-1.21436294,0.95260297,0.97368792\H,0,2.46341728,-0.24535624,-0.2242

 Normal termination of Gaussian 16 at Wed Apr  9 16:28:45 2025.
