 Gaussian 16, Revision C.01,

 ----------------------------------------------------------------------
 #t hf aug-cc-pvdz symm=none int=(grid=ultrafine) guess=(read,tcheck) s
 table=(opt,rrhf)
 ----------------------------------------------------------------------
 -----
 title
 -----
 Symbolic Z-matrix:
 Charge =  0 Multiplicity = 1

 SCF Done:  E(RHF) =  -394.316560729     A.U. after   15 cycles
 Normal termination of Gaussian 16 at Wed Apr  9 18:13:22 2025.
 Gaussian 16:  ES64L-G16RevC.01  3-Jul-2019

 ----------------------------------------------------------------------
 #t hf aug-cc-pvdz iop(5/13=1,5/36=2,99/5=2) pseudo=read geom=check gue
 ss=(read,tcheck) scf=(maxcycle=1)
 ----------------------------------------------------------------------
 -----
 title
 -----
 Structure from the checkpoint file:  "Grambow2020_wb97xd3_007199_forward_mol1.chk"
 Charge =  0 Multiplicity = 1

                         Standard orientation:
 ---------------------------------------------------------------------
 Center     Atomic      Atomic             Coordinates (Angstroms)
 Number     Number       Type             X           Y           Z
 ---------------------------------------------------------------------
      1          7           0       -1.259619    1.117347    0.302996
      2          6           0       -0.179560    0.418971    0.360103
      3          8           0        0.885328    0.794994   -0.365363
      4          6           0        2.020383    0.004634   -0.287656
      5          8           0        2.162190   -0.929882    0.416600
      6          6           0       -1.650879   -0.447125    0.353796
      7          8           0       -2.015006   -1.022365   -0.634430
      8          1           0       -1.429888    1.827108   -0.411418
      9          1           0        2.754329    0.413798   -0.991742
     10          1           0       -1.906872   -0.663186    1.390273
 ---------------------------------------------------------------------

 SCF Done:  E(RHF) =  -394.700264090     A.U. after    2 cycles

 The electronic state is 1-A.
 Alpha  occ. eigenvalues --  -20.65316 -20.58592 -20.53122 -15.56884 -11.43133
 Alpha  occ. eigenvalues --  -11.40877 -11.37279  -1.60644  -1.51845  -1.48659
 Alpha  occ. eigenvalues --   -1.31087  -0.97356  -0.92439  -0.82262  -0.76799
 Alpha  occ. eigenvalues --   -0.75494  -0.71946  -0.66633  -0.65926  -0.64829
 Alpha  occ. eigenvalues --   -0.58996  -0.55457  -0.51890  -0.48938  -0.44082
 Alpha  occ. eigenvalues --   -0.39411
 Alpha virt. eigenvalues --    0.02929   0.03937   0.05028   0.06242   0.07526
 Alpha virt. eigenvalues --    0.09157   0.09849   0.10487   0.11067   0.12342
 Alpha virt. eigenvalues --    0.13279   0.14041   0.14395   0.15261   0.16546

 Mulliken charges:
               1
     1  N    0.615041
     2  C   -0.084868
     3  O   -1.241999
     4  C    1.292765
     5  O   -0.868274
     6  C    1.067498
     7  O   -1.162954
     8  H    0.087105
     9  H    0.104121
    10  H    0.191565
 Sum of Mulliken charges =  -0.00000

 Dipole moment (field-independent basis, Debye):
    X=              1.6365    Y=              3.4759    Z=             -0.2199  Tot=              3.8482

 Test job not archived.
 1\1\GINC-SE112\SP\RHF\Aug-CC-pVDZ\C3H3N1O3\OHZDE\09-Apr-2025\0\\#t hf
 aug-cc-pvdz iop(5/13=1,5/36=2,99/5=2) pseudo=read geom=check guess=(re
 ad,tcheck) scf=(maxcycle=1)\\title\\0,1\N,0,-1.0277241,0.88160087,-0.7
 809731\C,0,-0.09981133,0.43815636,-0.00647125\O,0,1.07613759,0.0660366
 4,-0.53595423\C,0,2.03959996,-0.42183979,0.33167072\O,0,1.94773575,-0.
 47126527,1.50577621\C,0,-1.69581311,-0.04793914,0.35606169\O,0,-2.0665
 7893,-1.16047043,0.10133382\H,0,-1.00308192,0.78273734,-1.79722044\H,0
 ,2.89533521,-0.74194142,-0.27420165\H,0,-2.07864613,0.63048983,1.11742

 Normal termination of Gaussian 16 at Wed Apr  9 18:13:25 2025.
