 Gaussian 16, Revision C.01,

 ----------------------------------------------------------------------
 #t hf aug-cc-pvdz symm=none int=(grid=ultrafine) guess=(read,tcheck) s
 table=(opt,rrhf)
 ----------------------------------------------------------------------
 -----
 title
 -----
 Symbolic Z-matrix:
 Charge =  0 Multiplicity = 1

 SCF Done:  E(RHF) =  -309.060867720     A.U. after   13 cycles

 1\1\GINC-SE113\Stability\RHF\Aug-CC-pVDZ\C6H12O1\OHZDE\09-Apr-2025\0\\
 #t hf aug-cc-pvdz symm=none int=(grid=ultrafine) guess=(read,tcheck) s
 table=(opt,rrhf)\\title\\0,1\C,0,1.76380866,-0.32253521,-1.18890494\C,
 0,1.04837275,0.38614601,-0.06895253\O,0,0.67280409,1.73452118,-0.40190
 648\C,0,-0.60363669,1.56526034,0.22691057\C,0,-0.41419414,0.04020327,0
 .31352056\C,0,-0.60382272,-0.5976009,1.67696338\C,0,-1.1911162,-0.7045
 0707,-0.76058579\H,0,2.70963609,0.18033103,-1.39823824\H,0,1.98513743,
 -1.35483006,-0.90706438\H,0,1.17199978,-0.32680037,-2.10424482\H,0,1.6

 Normal termination of Gaussian 16 at Wed Apr  9 17:19:54 2025.
 Gaussian 16:  ES64L-G16RevC.01  3-Jul-2019

 ----------------------------------------------------------------------
 #t hf aug-cc-pvdz iop(5/13=1,5/36=2,99/5=2) pseudo=read geom=check gue
 ss=(read,tcheck) scf=(maxcycle=1)
 ----------------------------------------------------------------------
 -----
 title
 -----
 Structure from the checkpoint file:  "Grambow2020_wb97xd3_006571_forward_mol2.chk"
 Charge =  0 Multiplicity = 1

                         Standard orientation:
 ---------------------------------------------------------------------
 Center     Atomic      Atomic             Coordinates (Angstroms)
 Number     Number       Type             X           Y           Z
 ---------------------------------------------------------------------
      1          6           0       -1.866720   -0.972327   -0.237022
      2          6           0       -0.805822    0.051147   -0.545837
      3          8           0       -0.996598    1.292521    0.156033
      4          6           0        0.406261    1.385126    0.433109
      5          6           0        0.637135   -0.076099    0.008010
      6          6           0        1.718564   -0.326245   -1.026238
      7          6           0        0.779328   -1.012520    1.197465
      8          1           0       -2.837853   -0.611285   -0.580291
      9          1           0       -1.653111   -1.910900   -0.754231
     10          1           0       -1.936431   -1.168099    0.832985
     11          1           0       -0.783502    0.240278   -1.628523
     12          1           0        0.601631    1.633166    1.480097
     13          1           0        0.896312    2.123226   -0.212910
     14          1           0        1.626243    0.357221   -1.872897
     15          1           0        1.659523   -1.348074   -1.410837
     16          1           0        2.713715   -0.194078   -0.593832
     17          1           0        0.674552   -2.057996    0.896775
     18          1           0        0.033219   -0.803372    1.965789
     19          1           0        1.766006   -0.894749    1.652691
 ---------------------------------------------------------------------

 SCF Done:  E(RHF) =  -309.393756245     A.U. after    2 cycles

 The electronic state is 1-A.
 Alpha  occ. eigenvalues --  -20.52935 -11.28090 -11.27641 -11.24025 -11.22878
 Alpha  occ. eigenvalues --  -11.22703 -11.22318  -1.46020  -1.09197  -1.01298
 Alpha  occ. eigenvalues --   -0.94445  -0.91094  -0.86288  -0.73040  -0.66429
 Alpha  occ. eigenvalues --   -0.65279  -0.64441  -0.59964  -0.58016  -0.56648
 Alpha  occ. eigenvalues --   -0.54949  -0.54097  -0.52841  -0.52487  -0.49339
 Alpha  occ. eigenvalues --   -0.44222  -0.43692  -0.40050
 Alpha virt. eigenvalues --    0.03448   0.03634   0.03853   0.04387   0.05833
 Alpha virt. eigenvalues --    0.06053   0.06212   0.06408   0.07476   0.09355
 Alpha virt. eigenvalues --    0.09722   0.09952   0.11661   0.13176   0.14377

 Mulliken charges:
               1
     1  C   -0.405066
     2  C    1.266066
     3  O   -1.524207
     4  C    0.999101
     5  C   -1.714274
     6  C   -0.262780
     7  C   -0.181011
     8  H    0.145890
     9  H    0.244100
    10  H    0.241862
    11  H   -0.030131
    12  H    0.070636
    13  H    0.037568
    14  H    0.136080
    15  H    0.224806
    16  H    0.203386
    17  H    0.212184
    18  H    0.196813
    19  H    0.138976
 Sum of Mulliken charges =  -0.00000

 Dipole moment (field-independent basis, Debye):
    X=              1.4595    Y=             -1.3186    Z=             -0.3453  Tot=              1.9970

 Test job not archived.
 1\1\GINC-SE113\SP\RHF\Aug-CC-pVDZ\C6H12O1\OHZDE\09-Apr-2025\0\\#t hf a
 ug-cc-pvdz iop(5/13=1,5/36=2,99/5=2) pseudo=read geom=check guess=(rea
 d,tcheck) scf=(maxcycle=1)\\title\\0,1\C,0,1.76380866,-0.32253521,-1.1
 8890494\C,0,1.04837275,0.38614601,-0.06895253\O,0,0.67280409,1.7345211
 8,-0.40190648\C,0,-0.60363669,1.56526034,0.22691057\C,0,-0.41419414,0.
 04020327,0.31352056\C,0,-0.60382272,-0.5976009,1.67696338\C,0,-1.19111
 62,-0.70450707,-0.76058579\H,0,2.70963609,0.18033103,-1.39823824\H,0,1
 .98513743,-1.35483006,-0.90706438\H,0,1.17199978,-0.32680037,-2.104244

 Normal termination of Gaussian 16 at Wed Apr  9 17:20:01 2025.
