 Gaussian 16, Revision C.01,

 ----------------------------------------------------------------------
 #t hf aug-cc-pvdz symm=none int=(grid=ultrafine) guess=(read,tcheck) s
 table=(opt,rrhf)
 ----------------------------------------------------------------------
 -----
 title
 -----
 Symbolic Z-matrix:
 Charge =  0 Multiplicity = 1

 SCF Done:  E(RHF) =  -354.671175510     A.U. after   16 cycles
 Normal termination of Gaussian 16 at Wed Apr  9 03:40:12 2025.
 Gaussian 16:  ES64L-G16RevC.01  3-Jul-2019

 ----------------------------------------------------------------------
 #t hf aug-cc-pvdz iop(5/13=1,5/36=2,99/5=2) pseudo=read geom=check gue
 ss=(read,tcheck) scf=(maxcycle=1)
 ----------------------------------------------------------------------
 -----
 title
 -----
 Structure from the checkpoint file:  "Grambow2020_wb97xd3_007461_forward_mol1.chk"
 Charge =  0 Multiplicity = 1

                         Standard orientation:
 ---------------------------------------------------------------------
 Center     Atomic      Atomic             Coordinates (Angstroms)
 Number     Number       Type             X           Y           Z
 ---------------------------------------------------------------------
      1          7           0        2.258328   -0.698768    0.003120
      2          6           0        1.733652    0.384645    0.417574
      3          6           0        0.760929    1.200055   -0.154101
      4          7           0       -0.527824    1.039955   -0.123810
      5          6           0       -1.279978   -0.272258    0.002342
      6          8           0       -2.460372   -0.103489    0.267217
      7          7           0       -0.489506   -1.271529   -0.256887
      8          1           0        1.796535   -1.221619   -0.741174
      9          1           0        2.933556   -1.185594    0.573816
     10          1           0        1.147916    2.159281   -0.495767
     11          1           0       -1.133571    1.834254   -0.267515
     12          1           0       -1.036070   -2.120677   -0.158952
 ---------------------------------------------------------------------

 SCF Done:  E(RHF) =  -355.026280301     A.U. after    2 cycles

 The electronic state is 1-A.
 Alpha  occ. eigenvalues --  -20.46793 -15.60124 -15.57614 -15.42592 -11.37640
 Alpha  occ. eigenvalues --  -11.34692 -11.33016  -1.42632  -1.32111  -1.28985
 Alpha  occ. eigenvalues --   -1.14443  -1.03542  -0.90079  -0.83506  -0.80828
 Alpha  occ. eigenvalues --   -0.79960  -0.71177  -0.63411  -0.62621  -0.60299
 Alpha  occ. eigenvalues --   -0.58350  -0.51335  -0.47496  -0.40564  -0.39953
 Alpha  occ. eigenvalues --   -0.35873
 Alpha virt. eigenvalues --    0.01395   0.02623   0.03685   0.05010   0.05635
 Alpha virt. eigenvalues --    0.06703   0.07603   0.08109   0.10586   0.10673
 Alpha virt. eigenvalues --    0.12065   0.13369   0.13511   0.14383   0.14459

 Mulliken charges:
               1
     1  N    0.871289
     2  C   -1.070031
     3  C   -0.252497
     4  N    0.676811
     5  C    0.058284
     6  O   -1.193471
     7  N    0.333911
     8  H    0.126173
     9  H    0.174261
    10  H   -0.038786
    11  H    0.208173
    12  H    0.105883
 Sum of Mulliken charges =  -0.00000

 Dipole moment (field-independent basis, Debye):
    X=              6.8928    Y=              2.4820    Z=             -1.4430  Tot=              7.4668

 Test job not archived.
 1\1\GINC-SE396\SP\RHF\Aug-CC-pVDZ\C3H5N3O1\OHZDE\09-Apr-2025\0\\#t hf
 aug-cc-pvdz iop(5/13=1,5/36=2,99/5=2) pseudo=read geom=check guess=(re
 ad,tcheck) scf=(maxcycle=1)\\title\\0,1\N,0,2.06744527,0.14769768,-0.0
 0719805\C,0,1.17919997,0.94340172,0.43857756\C,0,-0.06656671,1.2939681
 7,-0.07431981\N,0,-1.18231585,0.63710172,0.03086922\C,0,-1.34404971,-0
 .86261401,0.1989437\O,0,-2.47831494,-1.16953388,0.53243108\N,0,-0.2372
 4548,-1.47237654,-0.10726163\H,0,1.81151889,-0.53150993,-0.72398142\H,
 0,2.9101823,-0.0191401,0.52250495\H,0,-0.1110339,2.32027507,-0.4367088

 Normal termination of Gaussian 16 at Wed Apr  9 03:40:17 2025.
