 Gaussian 16, Revision C.01,

 ----------------------------------------------------------------------
 #t hf aug-cc-pvdz symm=none int=(grid=ultrafine) guess=(read,tcheck) s
 table=(opt,rrhf)
 ----------------------------------------------------------------------
 -----
 title
 -----
 Symbolic Z-matrix:
 Charge =  0 Multiplicity = 1

 SCF Done:  E(RHF) =  -344.906310232     A.U. after   13 cycles

 1\1\GINC-SE105\Stability\RHF\Aug-CC-pVDZ\C5H10O2\OHZDE\09-Apr-2025\0\\
 #t hf aug-cc-pvdz symm=none int=(grid=ultrafine) guess=(read,tcheck) s
 table=(opt,rrhf)\\title\\0,1\C,0,-2.30995439,-0.62885799,-0.65293271\C
 ,0,-1.22706676,0.43792004,-0.74232351\C,0,-0.11692193,0.21822761,0.257
 3358\O,0,0.62633946,-0.99642173,-0.00332042\C,0,1.1620129,1.05346717,0
 .11285024\C,0,1.86415662,-0.2914729,-0.02801258\O,0,2.67714745,-0.5599
 4309,1.06806479\H,0,-3.0859605,-0.46819905,-1.4028145\H,0,-1.88379827,
 -1.62072387,-0.8116566\H,0,-2.7881023,-0.62292348,0.3295318\H,0,-0.792

 Normal termination of Gaussian 16 at Wed Apr  9 18:37:42 2025.
 Gaussian 16:  ES64L-G16RevC.01  3-Jul-2019

 ----------------------------------------------------------------------
 #t hf aug-cc-pvdz iop(5/13=1,5/36=2,99/5=2) pseudo=read geom=check gue
 ss=(read,tcheck) scf=(maxcycle=1)
 ----------------------------------------------------------------------
 -----
 title
 -----
 Structure from the checkpoint file:  "Grambow2020_wb97xd3_007830_reverse_mol2.chk"
 Charge =  0 Multiplicity = 1

                         Standard orientation:
 ---------------------------------------------------------------------
 Center     Atomic      Atomic             Coordinates (Angstroms)
 Number     Number       Type             X           Y           Z
 ---------------------------------------------------------------------
      1          6           0        2.726551   -0.586442   -0.076172
      2          6           0        1.741796    0.544766    0.187034
      3          6           0        0.387098    0.284922   -0.427195
      4          8           0       -0.281287   -0.850055    0.173505
      5          6           0       -0.775601    1.203505   -0.029058
      6          6           0       -1.442132   -0.075907    0.461405
      7          8           0       -2.540953   -0.411631   -0.322367
      8          1           0        3.688286   -0.392344    0.401018
      9          1           0        2.338476   -1.529474    0.312014
     10          1           0        2.904037   -0.712560   -1.146915
     11          1           0        1.612476    0.690816    1.264075
     12          1           0        2.124032    1.487393   -0.219780
     13          1           0        0.481335    0.134165   -1.508599
     14          1           0       -2.862525   -1.274021   -0.049352
     15          1           0       -1.309384    1.694552   -0.839065
     16          1           0       -0.533113    1.919165    0.755213
     17          1           0       -1.691976   -0.149259    1.526202
 ---------------------------------------------------------------------

 SCF Done:  E(RHF) =  -345.267765945     A.U. after    2 cycles

 The electronic state is 1-A.
 Alpha  occ. eigenvalues --  -20.55652 -20.53572 -11.34004 -11.28654 -11.23348
 Alpha  occ. eigenvalues --  -11.23011 -11.22097  -1.50208  -1.43584  -1.06652
 Alpha  occ. eigenvalues --   -1.01761  -0.92066  -0.83761  -0.76840  -0.72462
 Alpha  occ. eigenvalues --   -0.68939  -0.67752  -0.60484  -0.59862  -0.57766
 Alpha  occ. eigenvalues --   -0.55989  -0.54013  -0.51308  -0.49422  -0.48264
 Alpha  occ. eigenvalues --   -0.45845  -0.44745  -0.41837
 Alpha virt. eigenvalues --    0.03632   0.03783   0.04046   0.04179   0.05881
 Alpha virt. eigenvalues --    0.06391   0.06748   0.07154   0.07393   0.09476
 Alpha virt. eigenvalues --    0.11782   0.12540   0.13357   0.14006   0.14352

 Mulliken charges:
               1
     1  C   -0.333770
     2  C   -0.521771
     3  C    0.967024
     4  O   -1.544525
     5  C   -0.444139
     6  C    1.977543
     7  O   -1.289021
     8  H    0.126889
     9  H    0.185652
    10  H    0.166269
    11  H    0.164411
    12  H    0.174503
    13  H   -0.033413
    14  H    0.300723
    15  H    0.047671
    16  H    0.020163
    17  H    0.035791
 Sum of Mulliken charges =  -0.00000

 Dipole moment (field-independent basis, Debye):
    X=              0.2935    Y=              0.8526    Z=              0.8066  Tot=              1.2098

 Test job not archived.
 1\1\GINC-SE105\SP\RHF\Aug-CC-pVDZ\C5H10O2\OHZDE\09-Apr-2025\0\\#t hf a
 ug-cc-pvdz iop(5/13=1,5/36=2,99/5=2) pseudo=read geom=check guess=(rea
 d,tcheck) scf=(maxcycle=1)\\title\\0,1\C,0,-2.30995439,-0.62885799,-0.
 65293271\C,0,-1.22706676,0.43792004,-0.74232351\C,0,-0.11692193,0.2182
 2761,0.2573358\O,0,0.62633946,-0.99642173,-0.00332042\C,0,1.1620129,1.
 05346717,0.11285024\C,0,1.86415662,-0.2914729,-0.02801258\O,0,2.677147
 45,-0.55994309,1.06806479\H,0,-3.0859605,-0.46819905,-1.4028145\H,0,-1
 .88379827,-1.62072387,-0.8116566\H,0,-2.7881023,-0.62292348,0.3295318\

 Normal termination of Gaussian 16 at Wed Apr  9 18:37:48 2025.
