 Gaussian 16, Revision C.01,

 ----------------------------------------------------------------------
 #t hf aug-cc-pvdz symm=none int=(grid=ultrafine) guess=(read,tcheck) s
 table=(opt,rrhf)
 ----------------------------------------------------------------------
 -----
 title
 -----
 Symbolic Z-matrix:
 Charge =  0 Multiplicity = 1

 SCF Done:  E(RHF) =  -309.087391982     A.U. after   12 cycles

 1\1\GINC-SE135\Stability\RHF\Aug-CC-pVDZ\C6H12O1\OHZDE\09-Apr-2025\0\\
 #t hf aug-cc-pvdz symm=none int=(grid=ultrafine) guess=(read,tcheck) s
 table=(opt,rrhf)\\title\\0,1\C,0,-0.84677142,-1.60711302,-0.65142159\C
 ,0,-0.63584135,-0.10882086,-0.51556318\C,0,-1.10597929,0.4969705,0.804
 92336\C,0,-0.39342769,1.83859349,0.79241046\O,0,0.84536313,1.61439914,
 0.1364387\C,0,0.82290629,0.38180533,-0.58442959\C,0,1.85895821,-0.5583
 2418,0.00733975\H,0,-1.91164534,-1.84727892,-0.63119498\H,0,-0.4415173
 9,-1.98571225,-1.592585\H,0,-0.36899079,-2.15401873,0.16386502\H,0,-1.

 Normal termination of Gaussian 16 at Wed Apr  9 17:34:51 2025.
 Gaussian 16:  ES64L-G16RevC.01  3-Jul-2019

 ----------------------------------------------------------------------
 #t hf aug-cc-pvdz iop(5/13=1,5/36=2,99/5=2) pseudo=read geom=check gue
 ss=(read,tcheck) scf=(maxcycle=1)
 ----------------------------------------------------------------------
 -----
 title
 -----
 Structure from the checkpoint file:  "Grambow2020_wb97xd3_006728_forward_mol2.chk"
 Charge =  0 Multiplicity = 1

                         Standard orientation:
 ---------------------------------------------------------------------
 Center     Atomic      Atomic             Coordinates (Angstroms)
 Number     Number       Type             X           Y           Z
 ---------------------------------------------------------------------
      1          6           0        2.005684   -0.823751   -0.043146
      2          6           0        0.549518   -0.641445   -0.435796
      3          6           0       -0.464241   -1.277762    0.512408
      4          6           0       -1.747069   -0.578146    0.096803
      5          8           0       -1.366869    0.734702   -0.286658
      6          6           0        0.041617    0.811128   -0.509751
      7          6           0        0.652340    1.770786    0.496982
      8          1           0        2.277240   -1.881120   -0.059676
      9          1           0        2.675047   -0.300962   -0.730170
     10          1           0        2.198559   -0.448605    0.963898
     11          1           0        0.399011   -1.083431   -1.426752
     12          1           0       -0.213293   -1.044248    1.551229
     13          1           0       -0.520209   -2.362581    0.413722
     14          1           0       -2.485198   -0.504880    0.898027
     15          1           0       -2.214393   -1.092302   -0.753127
     16          1           0        0.196153    1.212152   -1.517771
     17          1           0        0.559289    1.389645    1.516481
     18          1           0        1.708631    1.948937    0.285470
     19          1           0        0.127021    2.724914    0.446935
 ---------------------------------------------------------------------

 SCF Done:  E(RHF) =  -309.421312238     A.U. after    2 cycles

 The electronic state is 1-A.
 Alpha  occ. eigenvalues --  -20.52747 -11.27651 -11.27353 -11.23357 -11.22769
 Alpha  occ. eigenvalues --  -11.22744 -11.21776  -1.45235  -1.09285  -1.03037
 Alpha  occ. eigenvalues --   -0.95977  -0.89735  -0.81272  -0.75900  -0.69591
 Alpha  occ. eigenvalues --   -0.65660  -0.62539  -0.60436  -0.58063  -0.56018
 Alpha  occ. eigenvalues --   -0.54558  -0.53988  -0.52509  -0.49147  -0.48312
 Alpha  occ. eigenvalues --   -0.46423  -0.44467  -0.39845
 Alpha virt. eigenvalues --    0.03396   0.03644   0.03769   0.04232   0.05988
 Alpha virt. eigenvalues --    0.06110   0.06198   0.06495   0.06864   0.09122
 Alpha virt. eigenvalues --    0.09757   0.10003   0.12324   0.12999   0.13680

 Mulliken charges:
               1
     1  C   -0.161196
     2  C   -0.957401
     3  C   -0.298847
     4  C    0.648728
     5  O   -1.573186
     6  C    1.089626
     7  C   -0.346846
     8  H    0.132286
     9  H    0.208478
    10  H    0.256506
    11  H    0.084174
    12  H    0.078298
    13  H    0.144553
    14  H    0.051604
    15  H    0.076364
    16  H    0.058802
    17  H    0.183243
    18  H    0.231697
    19  H    0.093117
 Sum of Mulliken charges =   0.00000

 Dipole moment (field-independent basis, Debye):
    X=              1.1721    Y=             -1.3166    Z=              0.1576  Tot=              1.7698

 Test job not archived.
 1\1\GINC-SE135\SP\RHF\Aug-CC-pVDZ\C6H12O1\OHZDE\09-Apr-2025\0\\#t hf a
 ug-cc-pvdz iop(5/13=1,5/36=2,99/5=2) pseudo=read geom=check guess=(rea
 d,tcheck) scf=(maxcycle=1)\\title\\0,1\C,0,-0.84677142,-1.60711302,-0.
 65142159\C,0,-0.63584135,-0.10882086,-0.51556318\C,0,-1.10597929,0.496
 9705,0.80492336\C,0,-0.39342769,1.83859349,0.79241046\O,0,0.84536313,1
 .61439914,0.1364387\C,0,0.82290629,0.38180533,-0.58442959\C,0,1.858958
 21,-0.55832418,0.00733975\H,0,-1.91164534,-1.84727892,-0.63119498\H,0,
 -0.44151739,-1.98571225,-1.592585\H,0,-0.36899079,-2.15401873,0.163865

 Normal termination of Gaussian 16 at Wed Apr  9 17:34:58 2025.
