 Gaussian 16, Revision C.01,

 ----------------------------------------------------------------------
 #t hf aug-cc-pvdz symm=none int=(grid=ultrafine) guess=(read,tcheck) s
 table=(opt,rrhf)
 ----------------------------------------------------------------------
 -----
 title
 -----
 Symbolic Z-matrix:
 Charge =  0 Multiplicity = 1

 SCF Done:  E(RHF) =  -360.800482067     A.U. after   14 cycles
 Normal termination of Gaussian 16 at Wed Apr  9 03:59:51 2025.
 Gaussian 16:  ES64L-G16RevC.01  3-Jul-2019

 ----------------------------------------------------------------------
 #t hf aug-cc-pvdz iop(5/13=1,5/36=2,99/5=2) pseudo=read geom=check gue
 ss=(read,tcheck) scf=(maxcycle=1)
 ----------------------------------------------------------------------
 -----
 title
 -----
 Structure from the checkpoint file:  "Grambow2020_wb97xd3_008735_forward_mol1.chk"
 Charge =  0 Multiplicity = 1

                         Standard orientation:
 ---------------------------------------------------------------------
 Center     Atomic      Atomic             Coordinates (Angstroms)
 Number     Number       Type             X           Y           Z
 ---------------------------------------------------------------------
      1          6           0       -2.628080   -0.719513    0.040755
      2          6           0       -0.985543    0.154950   -0.381279
      3          8           0       -1.131633    1.416076    0.033199
      4          6           0        0.035859   -0.713938    0.319870
      5          6           0        1.466269   -0.241170    0.038949
      6          8           0        2.353025   -1.038075   -0.182040
      7          7           0        1.643843    1.093933    0.098949
      8          1           0       -2.563151   -1.165170    1.029446
      9          1           0       -2.553601   -1.459813   -0.748552
     10          1           0       -3.583488   -0.194138   -0.091570
     11          1           0       -1.017997   -0.011458   -1.467812
     12          1           0       -2.146537    0.510725    0.141051
     13          1           0       -0.127376   -0.652901    1.398319
     14          1           0       -0.019859   -1.754128    0.004036
     15          1           0        2.559343    1.461164   -0.089239
     16          1           0        0.843600    1.702199    0.212632
 ---------------------------------------------------------------------

 SCF Done:  E(RHF) =  -361.172905283     A.U. after    2 cycles

 The electronic state is 1-A.
 Alpha  occ. eigenvalues --  -20.50622 -20.50192 -15.51457 -11.38126 -11.36037
 Alpha  occ. eigenvalues --  -11.28098 -11.26479  -1.45954  -1.43818  -1.22036
 Alpha  occ. eigenvalues --   -1.07548  -1.00981  -0.85864  -0.81956  -0.76113
 Alpha  occ. eigenvalues --   -0.71716  -0.70238  -0.64260  -0.62515  -0.61902
 Alpha  occ. eigenvalues --   -0.60362  -0.58583  -0.56339  -0.54308  -0.43105
 Alpha  occ. eigenvalues --   -0.42937  -0.41107  -0.39169
 Alpha virt. eigenvalues --    0.02589   0.03562   0.04075   0.04178   0.05881
 Alpha virt. eigenvalues --    0.06798   0.07337   0.07576   0.09125   0.10633
 Alpha virt. eigenvalues --    0.11629   0.12738   0.13360   0.13704   0.14299

 Mulliken charges:
               1
     1  C   -0.677263
     2  C    1.214041
     3  O   -1.634160
     4  C   -0.364589
     5  C    0.378953
     6  O   -1.301446
     7  N    0.769434
     8  H    0.147087
     9  H    0.176900
    10  H    0.066965
    11  H    0.134017
    12  H    0.579194
    13  H    0.246293
    14  H    0.124154
    15  H    0.076846
    16  H    0.063575
 Sum of Mulliken charges =  -0.00000

 Dipole moment (field-independent basis, Debye):
    X=             -3.9944    Y=             -0.7511    Z=             -0.0924  Tot=              4.0655

 Test job not archived.
 1\1\GINC-SE041\SP\RHF\Aug-CC-pVDZ\C4H9N1O2\OHZDE\09-Apr-2025\0\\#t hf
 aug-cc-pvdz iop(5/13=1,5/36=2,99/5=2) pseudo=read geom=check guess=(re
 ad,tcheck) scf=(maxcycle=1)\\title\\0,1\C,0,-2.16464419,-0.16756921,-0
 .7418063\C,0,-0.32647528,0.343713,-0.76305641\O,0,-0.29591416,1.598316
 39,-0.30631918\C,0,0.32227416,-0.73741006,0.0736838\C,0,1.84548556,-0.
 57592101,0.12110764\O,0,2.5764857,-1.53941622,0.03424286\N,0,2.2758302
 4,0.68884116,0.30224664\H,0,-2.40419481,-0.63657833,0.20844709\H,0,-2.
 07721847,-0.89065616,-1.54560898\H,0,-2.9416951,0.55251415,-1.03164025

 Normal termination of Gaussian 16 at Wed Apr  9 03:59:57 2025.
