 Gaussian 16, Revision C.01,

 ----------------------------------------------------------------------
 #t hf aug-cc-pvdz symm=none int=(grid=ultrafine) guess=(read,tcheck) s
 table=(opt,rrhf)
 ----------------------------------------------------------------------
 -----
 title
 -----
 Symbolic Z-matrix:
 Charge =  0 Multiplicity = 1

 SCF Done:  E(RHF) =  -344.649774804     A.U. after   16 cycles

 1\1\GINC-SE116\Stability\RHF\Aug-CC-pVDZ\C5H10O2\OHZDE\09-Apr-2025\0\\
 #t hf aug-cc-pvdz symm=none int=(grid=ultrafine) guess=(read,tcheck) s
 table=(opt,rrhf)\\title\\0,1\O,0,2.24878088,0.86093256,0.28330181\C,0,
 1.90688202,-0.42727815,-0.18725888\C,0,0.44057013,-0.66237309,-0.02504
 937\C,0,-0.5339062,0.36299289,-0.10522483\C,0,-1.88017134,0.34207996,-
 0.93857663\O,0,-2.70215655,0.54655574,0.20373474\C,0,-1.5904722,0.1194
 8221,0.95055836\H,0,3.17335823,1.02350778,0.09338591\H,0,2.46559728,-1
 .20742692,0.34471013\H,0,2.16832104,-0.51717967,-1.25601527\H,0,0.3199

 Normal termination of Gaussian 16 at Wed Apr  9 18:25:35 2025.
 Gaussian 16:  ES64L-G16RevC.01  3-Jul-2019

 ----------------------------------------------------------------------
 #t hf aug-cc-pvdz iop(5/13=1,5/36=2,99/5=2) pseudo=read geom=check gue
 ss=(read,tcheck) scf=(maxcycle=1)
 ----------------------------------------------------------------------
 -----
 title
 -----
 Structure from the checkpoint file:  "Grambow2020_wb97xd3_007549_forward_mol1.chk"
 Charge =  0 Multiplicity = 1

                         Standard orientation:
 ---------------------------------------------------------------------
 Center     Atomic      Atomic             Coordinates (Angstroms)
 Number     Number       Type             X           Y           Z
 ---------------------------------------------------------------------
      1          8           0        2.420130    0.133227   -0.843133
      2          6           0        2.132705   -0.263691    0.482632
      3          6           0        0.683188   -0.057273    0.779183
      4          6           0       -0.341858   -0.167708   -0.192668
      5          6           0       -1.701624   -0.968851   -0.064024
      6          8           0       -2.510000    0.179576   -0.287605
      7          6           0       -1.364190    0.922249    0.046365
      8          1           0        3.331688   -0.085158   -1.039889
      9          1           0        2.739428    0.294633    1.206474
     10          1           0        2.377143   -1.332050    0.615045
     11          1           0        0.580733    1.777902    0.313635
     12          1           0        0.406672   -0.123276    1.826324
     13          1           0        0.011952   -0.193451   -1.221187
     14          1           0       -1.842316   -1.363918    0.942695
     15          1           0       -1.843467   -1.733525   -0.826430
     16          1           0       -0.057581    2.090307   -0.123178
     17          1           0       -1.434617    1.377767    1.043483
 ---------------------------------------------------------------------

 SCF Done:  E(RHF) =  -345.007305503     A.U. after    2 cycles

 The electronic state is 1-A.
 Alpha  occ. eigenvalues --  -20.56568 -20.55508 -11.32383 -11.32125 -11.29864
 Alpha  occ. eigenvalues --  -11.25740 -11.25140  -1.50672  -1.45965  -1.10349
 Alpha  occ. eigenvalues --   -0.98962  -0.93307  -0.83960  -0.78528  -0.72260
 Alpha  occ. eigenvalues --   -0.68415  -0.67426  -0.65494  -0.63091  -0.60640
 Alpha  occ. eigenvalues --   -0.56199  -0.54718  -0.52590  -0.48898  -0.46818
 Alpha  occ. eigenvalues --   -0.45629  -0.44659  -0.26867
 Alpha virt. eigenvalues --    0.02839   0.03160   0.03588   0.04625   0.05156
 Alpha virt. eigenvalues --    0.05845   0.06432   0.06974   0.07842   0.09035
 Alpha virt. eigenvalues --    0.09694   0.11429   0.12697   0.13676   0.14354

 Mulliken charges:
               1
     1  O   -1.167157
     2  C    0.616149
     3  C   -0.374948
     4  C    0.064309
     5  C    0.607749
     6  O   -1.330609
     7  C    0.848513
     8  H    0.325972
     9  H    0.099915
    10  H    0.151171
    11  H    0.145421
    12  H   -0.170173
    13  H   -0.124672
    14  H    0.041081
    15  H    0.109655
    16  H    0.182522
    17  H   -0.024900
 Sum of Mulliken charges =   0.00000

 Dipole moment (field-independent basis, Debye):
    X=              2.2092    Y=             -2.7351    Z=              1.4743  Tot=              3.8125

 Test job not archived.
 1\1\GINC-SE116\SP\RHF\Aug-CC-pVDZ\C5H10O2\OHZDE\09-Apr-2025\0\\#t hf a
 ug-cc-pvdz iop(5/13=1,5/36=2,99/5=2) pseudo=read geom=check guess=(rea
 d,tcheck) scf=(maxcycle=1)\\title\\0,1\O,0,2.24878088,0.86093256,0.283
 30181\C,0,1.90688202,-0.42727815,-0.18725888\C,0,0.44057013,-0.6623730
 9,-0.02504937\C,0,-0.5339062,0.36299289,-0.10522483\C,0,-1.88017134,0.
 34207996,-0.93857663\O,0,-2.70215655,0.54655574,0.20373474\C,0,-1.5904
 722,0.11948221,0.95055836\H,0,3.17335823,1.02350778,0.09338591\H,0,2.4
 6559728,-1.20742692,0.34471013\H,0,2.16832104,-0.51717967,-1.25601527\

 Normal termination of Gaussian 16 at Wed Apr  9 18:25:41 2025.
