 Gaussian 16, Revision C.01,

 ----------------------------------------------------------------------
 #t hf aug-cc-pvdz symm=none int=(grid=ultrafine) guess=(read,tcheck) s
 table=(opt,rrhf)
 ----------------------------------------------------------------------
 -----
 title
 -----
 Symbolic Z-matrix:
 Charge =  0 Multiplicity = 1

 SCF Done:  E(RHF) =  -305.715423235     A.U. after   15 cycles
 Normal termination of Gaussian 16 at Wed Apr  9 17:13:20 2025.
 Gaussian 16:  ES64L-G16RevC.01  3-Jul-2019

 ----------------------------------------------------------------------
 #t hf aug-cc-pvdz iop(5/13=1,5/36=2,99/5=2) pseudo=read geom=check gue
 ss=(read,tcheck) scf=(maxcycle=1)
 ----------------------------------------------------------------------
 -----
 title
 -----
 Structure from the checkpoint file:  "Grambow2020_wb97xd3_006283_forward_mol1.chk"
 Charge =  0 Multiplicity = 1

                         Standard orientation:
 ---------------------------------------------------------------------
 Center     Atomic      Atomic             Coordinates (Angstroms)
 Number     Number       Type             X           Y           Z
 ---------------------------------------------------------------------
      1          6           0       -2.153923   -0.273529   -0.258119
      2          6           0       -0.712234    0.022291    0.052776
      3          6           0       -0.233127    1.295951    0.451147
      4          8           0        1.587345    0.544625   -0.579062
      5          6           0        1.562134   -0.587490    0.061027
      6          8           0        0.066274   -1.017183    0.361533
      7          1           0       -2.667267    0.606912   -0.645734
      8          1           0       -2.214365   -1.079191   -0.987559
      9          1           0       -2.661209   -0.595225    0.651954
     10          1           0       -0.175755    0.527076   -0.909378
     11          1           0       -0.738696    2.170227    0.055891
     12          1           0        0.553583    1.461784    1.169811
     13          1           0        1.904494   -1.456849   -0.513020
     14          1           0        1.993154   -0.597618    1.077285
 ---------------------------------------------------------------------

 SCF Done:  E(RHF) =  -306.031905822     A.U. after    2 cycles

 The electronic state is 1-A.
 Alpha  occ. eigenvalues --  -20.53621 -20.45862 -11.36026 -11.32945 -11.30715
 Alpha  occ. eigenvalues --  -11.26228  -1.47624  -1.36075  -1.11486  -0.99277
 Alpha  occ. eigenvalues --   -0.86678  -0.80510  -0.71445  -0.69092  -0.65784
 Alpha  occ. eigenvalues --   -0.61510  -0.59831  -0.58219  -0.56319  -0.54578
 Alpha  occ. eigenvalues --   -0.48959  -0.42754  -0.36592  -0.35328
 Alpha virt. eigenvalues --    0.01863   0.03593   0.03768   0.05141   0.05884
 Alpha virt. eigenvalues --    0.06463   0.06540   0.07680   0.08654   0.10485
 Alpha virt. eigenvalues --    0.12232   0.13387   0.14431   0.14700   0.15680

 Mulliken charges:
               1
     1  C   -0.328021
     2  C    0.901992
     3  C   -0.110140
     4  O   -1.209494
     5  C    0.851548
     6  O   -1.487293
     7  H    0.182244
     8  H    0.218330
     9  H    0.243934
    10  H    0.749847
    11  H   -0.048307
    12  H   -0.060236
    13  H   -0.003478
    14  H    0.099075
 Sum of Mulliken charges =  -0.00000

 Dipole moment (field-independent basis, Debye):
    X=             -4.0277    Y=              1.9893    Z=              1.2649  Tot=              4.6669

 Test job not archived.
 1\1\GINC-SE229\SP\RHF\Aug-CC-pVDZ\C4H8O2\OHZDE\09-Apr-2025\0\\#t hf au
 g-cc-pvdz iop(5/13=1,5/36=2,99/5=2) pseudo=read geom=check guess=(read
 ,tcheck) scf=(maxcycle=1)\\title\\0,1\C,0,-1.83904655,0.02070732,0.555
 81543\C,0,-0.43734019,-0.01712434,0.0113698\C,0,0.16385209,-1.17268499
 ,-0.54871855\O,0,1.98650107,-0.18355359,0.25097285\C,0,1.68384179,0.95
 941805,-0.29128821\O,0,0.11084339,1.15072733,-0.33145507\H,0,-2.140827
 49,-0.95065849,0.94865123\H,0,-1.90652378,0.76786058,1.3445086\H,0,-2.
 52895348,0.299311,-0.24134713\H,0,0.31777886,-0.47385536,0.84176038\H,

 Normal termination of Gaussian 16 at Wed Apr  9 17:13:24 2025.
