 Gaussian 16, Revision C.01,

 ----------------------------------------------------------------------
 #t hf aug-cc-pvdz symm=none int=(grid=ultrafine) guess=(read,tcheck) s
 table=(opt,rrhf)
 ----------------------------------------------------------------------
 -----
 title
 -----
 Symbolic Z-matrix:
 Charge =  0 Multiplicity = 1

 SCF Done:  E(RHF) =  -273.109619472     A.U. after   14 cycles
 Normal termination of Gaussian 16 at Wed Apr  9 18:37:23 2025.
 Gaussian 16:  ES64L-G16RevC.01  3-Jul-2019

 ----------------------------------------------------------------------
 #t hf aug-cc-pvdz iop(5/13=1,5/36=2,99/5=2) pseudo=read geom=check gue
 ss=(read,tcheck) scf=(maxcycle=1)
 ----------------------------------------------------------------------
 -----
 title
 -----
 Structure from the checkpoint file:  "Grambow2020_wb97xd3_007784_forward_mol1.chk"
 Charge =  0 Multiplicity = 1

                         Standard orientation:
 ---------------------------------------------------------------------
 Center     Atomic      Atomic             Coordinates (Angstroms)
 Number     Number       Type             X           Y           Z
 ---------------------------------------------------------------------
      1          6           0       -1.488133   -1.099429   -0.748545
      2          6           0       -0.679436   -0.022809   -0.022248
      3          6           0       -0.597668   -0.384825    1.466180
      4          6           0       -1.402145    1.328572   -0.164377
      5          6           0        0.615894    0.239081   -0.799522
      6          6           0        2.057101   -0.677032   -0.045154
      7          6           0        1.738908    0.808600   -0.028834
      8          1           0       -1.600538   -0.844878   -1.802992
      9          1           0       -0.985817   -2.069449   -0.689204
     10          1           0       -2.480832   -1.213613   -0.303906
     11          1           0       -1.599024   -0.387665    1.903566
     12          1           0       -0.182411   -1.384045    1.615557
     13          1           0       -0.001527    0.324964    2.043354
     14          1           0       -1.460305    1.633058   -1.210683
     15          1           0       -2.417967    1.246880    0.229413
     16          1           0       -0.887325    2.115728    0.391532
     17          1           0        1.249890   -1.076533   -0.819874
     18          1           0        1.950082   -1.182568    0.906546
     19          1           0        2.950545   -0.939746   -0.602464
     20          1           0        2.439244    1.429467   -0.579292
     21          1           0        1.558864    1.195458    0.973448
 ---------------------------------------------------------------------

 SCF Done:  E(RHF) =  -273.412486835     A.U. after    2 cycles

 The electronic state is 1-A.
 Alpha  occ. eigenvalues --  -11.26887 -11.24076 -11.23890 -11.23630 -11.22155
 Alpha  occ. eigenvalues --  -11.21969 -11.21261  -1.14963  -1.07305  -0.93542
 Alpha  occ. eigenvalues --   -0.92971  -0.86933  -0.83075  -0.72002  -0.67053
 Alpha  occ. eigenvalues --   -0.63121  -0.60714  -0.59907  -0.55714  -0.54660
 Alpha  occ. eigenvalues --   -0.53724  -0.53344  -0.51458  -0.50882  -0.47974
 Alpha  occ. eigenvalues --   -0.46462  -0.44928  -0.32008
 Alpha virt. eigenvalues --    0.03221   0.03471   0.03662   0.04344   0.05770
 Alpha virt. eigenvalues --    0.05927   0.06241   0.06389   0.06775   0.08908
 Alpha virt. eigenvalues --    0.09583   0.09715   0.09947   0.10353   0.12951

 Mulliken charges:
               1
     1  C    0.156503
     2  C   -2.446754
     3  C    0.116401
     4  C    0.162718
     5  C   -0.358332
     6  C   -0.246135
     7  C    0.345099
     8  H    0.262060
     9  H    0.150849
    10  H    0.216734
    11  H    0.133819
    12  H    0.257766
    13  H    0.186416
    14  H    0.260147
    15  H    0.180137
    16  H    0.230241
    17  H    0.374727
    18  H    0.032259
    19  H    0.032095
    20  H   -0.047944
    21  H    0.001195
 Sum of Mulliken charges =  -0.00000

 Dipole moment (field-independent basis, Debye):
    X=              0.8181    Y=             -0.6287    Z=              1.8184  Tot=              2.0907

 Test job not archived.
 1\1\GINC-SE173\SP\RHF\Aug-CC-pVDZ\C7H14\OHZDE\09-Apr-2025\0\\#t hf aug
 -cc-pvdz iop(5/13=1,5/36=2,99/5=2) pseudo=read geom=check guess=(read,
 tcheck) scf=(maxcycle=1)\\title\\0,1\C,0,-0.74932178,1.63078642,0.7847
 7714\C,0,-0.51266871,0.20570383,0.28104763\C,0,-0.94251851,0.12250927,
 -1.18914593\C,0,-1.37487672,-0.76711957,1.10503337\C,0,0.9033597,-0.23
 385774,0.67126649\C,0,2.09109775,-0.04221716,-0.75630593\C,0,1.5058701
 3,-1.30497873,-0.14675066\H,0,-0.49352498,1.70842649,1.84205084\H,0,-0
 .12876942,2.3453366,0.23603754\H,0,-1.79321326,1.92801899,0.65010704\H

 Normal termination of Gaussian 16 at Wed Apr  9 18:37:33 2025.
