 Gaussian 16, Revision C.01,

 ----------------------------------------------------------------------
 #t hf aug-cc-pvdz symm=none int=(grid=ultrafine) guess=(read,tcheck) s
 table=(opt,rrhf)
 ----------------------------------------------------------------------
 -----
 title
 -----
 Symbolic Z-matrix:
 Charge =  0 Multiplicity = 1

 SCF Done:  E(RHF) =  -373.320945729     A.U. after   16 cycles
 Normal termination of Gaussian 16 at Wed Apr  9 04:05:25 2025.
 Gaussian 16:  ES64L-G16RevC.01  3-Jul-2019

 ----------------------------------------------------------------------
 #t hf aug-cc-pvdz iop(5/13=1,5/36=2,99/5=2) pseudo=read geom=check gue
 ss=(read,tcheck) scf=(maxcycle=1)
 ----------------------------------------------------------------------
 -----
 title
 -----
 Structure from the checkpoint file:  "Grambow2020_wb97xd3_009226_reverse_mol1.chk"
 Charge =  0 Multiplicity = 1

                         Standard orientation:
 ---------------------------------------------------------------------
 Center     Atomic      Atomic             Coordinates (Angstroms)
 Number     Number       Type             X           Y           Z
 ---------------------------------------------------------------------
      1          7           0        0.357560    1.473333   -0.018317
      2          6           0        0.557897    0.254782   -0.074993
      3          8           0       -0.287059   -0.821509   -0.055474
      4          6           0       -1.637639   -0.663463    0.012778
      5          8           0       -2.228034    0.366677    0.051364
      6          6           0        2.032687   -0.334899   -0.598251
      7          7           0        2.088881   -0.322645    0.585421
      8          1           0       -0.632555    1.706729    0.000698
      9          1           0       -2.089458   -1.661409    0.025261
 ---------------------------------------------------------------------

 SCF Done:  E(RHF) =  -373.683233519     A.U. after    2 cycles

 The electronic state is 1-A.
 Alpha  occ. eigenvalues --  -20.66449 -20.60079 -15.58584 -15.54143 -11.45112
 Alpha  occ. eigenvalues --  -11.44947 -11.30976  -1.62387  -1.53188  -1.34683
 Alpha  occ. eigenvalues --   -1.26566  -0.99753  -0.85585  -0.79320  -0.76734
 Alpha  occ. eigenvalues --   -0.75363  -0.69354  -0.67932  -0.64657  -0.58290
 Alpha  occ. eigenvalues --   -0.57637  -0.53963  -0.52256  -0.49552  -0.47968
 Alpha virt. eigenvalues --    0.02582   0.03109   0.05158   0.06846   0.07469
 Alpha virt. eigenvalues --    0.08757   0.09650   0.10329   0.11255   0.12333
 Alpha virt. eigenvalues --    0.12865   0.14300   0.14705   0.15406   0.16074

 Mulliken charges:
               1
     1  N    0.653522
     2  C   -0.368336
     3  O   -1.101572
     4  C    1.429827
     5  O   -0.984092
     6  C   -0.375781
     7  N    0.472962
     8  H    0.177724
     9  H    0.095745
 Sum of Mulliken charges =  -0.00000

 Dipole moment (field-independent basis, Debye):
    X=             -2.5123    Y=             -2.3441    Z=             -0.4542  Tot=              3.4659

 Test job not archived.
 1\1\GINC-SE402\SP\RHF\Aug-CC-pVDZ\C3H2N2O2\OHZDE\09-Apr-2025\0\\#t hf
 aug-cc-pvdz iop(5/13=1,5/36=2,99/5=2) pseudo=read geom=check guess=(re
 ad,tcheck) scf=(maxcycle=1)\\title\\0,1\N,0,-1.40573037,-0.52947895,-0
 .4782922\C,0,-0.73097667,0.32147873,0.11229328\O,0,0.61641083,0.457341
 89,0.30932555\C,0,1.50415315,-0.43385625,-0.21161797\O,0,1.24497666,-1
 .38448059,-0.87523247\C,0,-1.40000613,1.80107901,0.51193077\N,0,-1.501
 48384,1.1260651,1.4806649\H,0,-0.8326762,-1.23246805,-0.9393543\H,0,2.
 50887155,-0.1180839,0.09007944\\Version=ES64L-G16RevC.01\State=1-A\HF=

 Normal termination of Gaussian 16 at Wed Apr  9 04:05:28 2025.
