 Gaussian 16, Revision C.01,

 ----------------------------------------------------------------------
 #t hf aug-cc-pvdz symm=none int=(grid=ultrafine) guess=(read,tcheck) s
 table=(opt,rrhf)
 ----------------------------------------------------------------------
 -----
 title
 -----
 Symbolic Z-matrix:
 Charge =  0 Multiplicity = 1

 SCF Done:  E(RHF) =  -322.666978111     A.U. after   15 cycles
 Normal termination of Gaussian 16 at Wed Apr  9 03:26:47 2025.
 Gaussian 16:  ES64L-G16RevC.01  3-Jul-2019

 ----------------------------------------------------------------------
 #t hf aug-cc-pvdz iop(5/13=1,5/36=2,99/5=2) pseudo=read geom=check gue
 ss=(read,tcheck) scf=(maxcycle=1)
 ----------------------------------------------------------------------
 -----
 title
 -----
 Structure from the checkpoint file:  "Grambow2020_wb97xd3_006624_forward_mol2.chk"
 Charge =  0 Multiplicity = 1

                         Standard orientation:
 ---------------------------------------------------------------------
 Center     Atomic      Atomic             Coordinates (Angstroms)
 Number     Number       Type             X           Y           Z
 ---------------------------------------------------------------------
      1          8           0       -1.789604   -0.943688    0.002370
      2          6           0       -1.650904    0.246919    0.104295
      3          6           0       -0.409216    1.034546   -0.108369
      4          6           0        0.859546    0.769902    0.622055
      5          6           0        1.127320   -0.711475    0.823677
      6          6           0        1.032714   -0.822248   -0.709226
      7          7           0        0.793430    0.652061   -0.856828
      8          1           0       -2.510134    0.882051    0.406595
      9          1           0       -0.620102    2.089401   -0.252582
     10          1           0        1.377354    1.584784    1.114604
     11          1           0        0.396808   -1.266392    1.411024
     12          1           0        2.126100   -0.905475    1.209843
     13          1           0        0.250509   -1.451871   -1.123145
     14          1           0        1.985529   -1.053281   -1.182095
 ---------------------------------------------------------------------

 SCF Done:  E(RHF) =  -323.000147891     A.U. after    2 cycles

 The electronic state is 1-A.
 Alpha  occ. eigenvalues --  -20.55262 -15.51559 -11.35114 -11.28747 -11.28221
 Alpha  occ. eigenvalues --  -11.26192 -11.24240  -1.48813  -1.31498  -1.04157
 Alpha  occ. eigenvalues --   -0.96847  -0.92569  -0.78642  -0.76991  -0.73258
 Alpha  occ. eigenvalues --   -0.67257  -0.66504  -0.63471  -0.58188  -0.57441
 Alpha  occ. eigenvalues --   -0.54052  -0.52067  -0.48730  -0.47462  -0.41630
 Alpha  occ. eigenvalues --   -0.40492
 Alpha virt. eigenvalues --    0.03209   0.03851   0.04549   0.04649   0.05847
 Alpha virt. eigenvalues --    0.05974   0.06966   0.08783   0.09972   0.10480
 Alpha virt. eigenvalues --    0.12754   0.13462   0.13611   0.14324   0.14699

 Mulliken charges:
               1
     1  O   -1.203414
     2  C    0.770646
     3  C   -0.085583
     4  C    0.263077
     5  C    0.035365
     6  C   -0.031874
     7  N    0.399313
     8  H    0.098054
     9  H   -0.155640
    10  H   -0.196268
    11  H    0.027129
    12  H    0.071824
    13  H    0.024606
    14  H   -0.017235
 Sum of Mulliken charges =  -0.00000

 Dipole moment (field-independent basis, Debye):
    X=              0.5022    Y=              1.3038    Z=              1.9019  Tot=              2.3600

 Test job not archived.
 1\1\GINC-SE049\SP\RHF\Aug-CC-pVDZ\C5H7N1O1\OHZDE\09-Apr-2025\0\\#t hf
 aug-cc-pvdz iop(5/13=1,5/36=2,99/5=2) pseudo=read geom=check guess=(re
 ad,tcheck) scf=(maxcycle=1)\\title\\0,1\O,0,1.11654185,0.94542389,1.66
 778989\C,0,1.3011379,1.25127489,0.51907253\C,0,0.44497192,0.9292141,-0
 .65166562\C,0,0.06434197,-0.45935261,-1.0262544\C,0,-0.22793239,-1.337
 22289,0.17821655\C,0,-1.28083644,-0.27809788,0.55326443\N,0,-0.9703631
 7,0.54255448,-0.66442446\H,0,2.20829616,1.8259633,0.2364947\H,0,0.6663
 0238,1.56732961,-1.50126044\H,0,0.20746881,-0.80069272,-2.04496188\H,0

 Normal termination of Gaussian 16 at Wed Apr  9 03:26:52 2025.
