 Gaussian 16, Revision C.01,

 ----------------------------------------------------------------------
 #t hf aug-cc-pvdz symm=none int=(grid=ultrafine) guess=(read,tcheck) s
 table=(opt,rrhf)
 ----------------------------------------------------------------------
 -----
 title
 -----
 Symbolic Z-matrix:
 Charge =  0 Multiplicity = 1

 SCF Done:  E(RHF) =  -358.442567400     A.U. after   16 cycles
 Normal termination of Gaussian 16 at Wed Apr  9 03:52:52 2025.
 Gaussian 16:  ES64L-G16RevC.01  3-Jul-2019

 ----------------------------------------------------------------------
 #t hf aug-cc-pvdz iop(5/13=1,5/36=2,99/5=2) pseudo=read geom=check gue
 ss=(read,tcheck) scf=(maxcycle=1)
 ----------------------------------------------------------------------
 -----
 title
 -----
 Structure from the checkpoint file:  "Grambow2020_wb97xd3_008316_forward_mol1.chk"
 Charge =  0 Multiplicity = 1

                         Standard orientation:
 ---------------------------------------------------------------------
 Center     Atomic      Atomic             Coordinates (Angstroms)
 Number     Number       Type             X           Y           Z
 ---------------------------------------------------------------------
      1          6           0        1.910933    0.885185    0.123613
      2          6           0        0.678696    0.111648   -0.119559
      3          6           0       -0.673433    0.384303   -0.148860
      4          8           0       -1.203710    1.584944    0.022747
      5          7           0       -1.455723   -0.761950   -0.125306
      6          6           0       -0.351426   -1.316638    0.395586
      7          8           0        0.773355   -1.339331   -0.354410
      8          1           0        2.468762    0.511962    0.985055
      9          1           0        2.570905    0.847389   -0.747399
     10          1           0        1.645027    1.926060    0.308891
     11          1           0       -2.158000    1.460567    0.087290
     12          1           0       -0.282402   -1.764221    1.391931
 ---------------------------------------------------------------------

 SCF Done:  E(RHF) =  -358.803006494     A.U. after    2 cycles

 The electronic state is 1-A.
 Alpha  occ. eigenvalues --  -20.61242 -20.59666 -15.46918 -11.42390 -11.38004
 Alpha  occ. eigenvalues --  -11.29981 -11.25356  -1.55881  -1.53713  -1.26846
 Alpha  occ. eigenvalues --   -1.06048  -0.95262  -0.88329  -0.81393  -0.74693
 Alpha  occ. eigenvalues --   -0.73374  -0.64944  -0.63325  -0.61964  -0.60866
 Alpha  occ. eigenvalues --   -0.58195  -0.55928  -0.53383  -0.51486  -0.44483
 Alpha  occ. eigenvalues --   -0.31308
 Alpha virt. eigenvalues --    0.03377   0.04087   0.04297   0.05685   0.06222
 Alpha virt. eigenvalues --    0.07547   0.09851   0.10489   0.10748   0.11603
 Alpha virt. eigenvalues --    0.13245   0.14149   0.14731   0.14869   0.15774

 Mulliken charges:
               1
     1  C   -0.549176
     2  C    1.404807
     3  C    0.370584
     4  O   -1.399790
     5  N    0.501048
     6  C    0.231549
     7  O   -1.543856
     8  H    0.219448
     9  H    0.237904
    10  H    0.199435
    11  H    0.337420
    12  H   -0.009373
 Sum of Mulliken charges =  -0.00000

 Dipole moment (field-independent basis, Debye):
    X=              1.1770    Y=              1.0116    Z=              2.1365  Tot=              2.6408

 Test job not archived.
 1\1\GINC-SE403\SP\RHF\Aug-CC-pVDZ\C4H5N1O2\OHZDE\09-Apr-2025\0\\#t hf
 aug-cc-pvdz iop(5/13=1,5/36=2,99/5=2) pseudo=read geom=check guess=(re
 ad,tcheck) scf=(maxcycle=1)\\title\\0,1\C,0,-1.58651393,-0.66777126,0.
 05548733\C,0,-0.1860552,-0.30487896,0.34345222\C,0,0.55723268,0.857435
 09,0.34213386\O,0,0.07270527,2.06118444,0.08059535\N,0,1.92438157,0.62
 377916,0.39444442\C,0,1.57825228,-0.5832957,-0.07634582\O,0,0.77801875
 ,-1.36557712,0.68247124\H,0,-1.66719194,-1.37531116,-0.77241941\H,0,-2
 .05826782,-1.11975487,0.93230691\H,0,-2.13965504,0.23448743,-0.2060833

 Normal termination of Gaussian 16 at Wed Apr  9 03:52:56 2025.
