 Gaussian 16, Revision C.01,

 ----------------------------------------------------------------------
 #t hf aug-cc-pvdz symm=none int=(grid=ultrafine) guess=(read,tcheck) s
 table=(opt,rrhf)
 ----------------------------------------------------------------------
 -----
 title
 -----
 Symbolic Z-matrix:
 Charge =  0 Multiplicity = 1

 SCF Done:  E(RHF) =  -301.996794397     A.U. after   14 cycles
 Normal termination of Gaussian 16 at Wed Apr  9 15:56:51 2025.
 Gaussian 16:  ES64L-G16RevC.01  3-Jul-2019

 ----------------------------------------------------------------------
 #t hf aug-cc-pvdz iop(5/13=1,5/36=2,99/5=2) pseudo=read geom=check gue
 ss=(read,tcheck) scf=(maxcycle=1)
 ----------------------------------------------------------------------
 -----
 title
 -----
 Structure from the checkpoint file:  "Grambow2020_b97d3_007043_reverse_mol2.chk"
 Charge =  0 Multiplicity = 1

                         Standard orientation:
 ---------------------------------------------------------------------
 Center     Atomic      Atomic             Coordinates (Angstroms)
 Number     Number       Type             X           Y           Z
 ---------------------------------------------------------------------
      1          6           0       -2.105972   -0.993266    0.197627
      2          7           0       -1.150049    0.066992   -0.065789
      3          6           0       -1.585890    1.215117   -0.399085
      4          6           0        1.776766   -0.331416   -0.091626
      5          8           0        1.560441   -1.471794    0.122963
      6          7           0        1.905534    0.868162   -0.331589
      7          1           0       -1.900251   -1.827343   -0.489105
      8          1           0       -1.937763   -1.372369    1.216118
      9          1           0       -3.166824   -0.694159    0.093577
     10          1           0       -0.859248    2.009241   -0.600828
     11          1           0       -2.658552    1.467473   -0.500651
     12          1           0        0.645540    2.735111    2.386764
     13          1           0        2.825335    1.294666   -0.363624
     14          1           0        0.770420    2.273048    1.814185
 ---------------------------------------------------------------------

 SCF Done:  E(RHF) =  -302.305888294     A.U. after    2 cycles

 The electronic state is 1-A.
 Alpha  occ. eigenvalues --  -20.60014 -15.52465 -15.50327 -11.41970 -11.28086
 Alpha  occ. eigenvalues --  -11.25639  -1.53468  -1.25492  -1.22385  -0.96582
 Alpha  occ. eigenvalues --   -0.82764  -0.80086  -0.72489  -0.67160  -0.65747
 Alpha  occ. eigenvalues --   -0.64644  -0.63460  -0.59673  -0.58343  -0.53835
 Alpha  occ. eigenvalues --   -0.50052  -0.46247  -0.44139  -0.43985
 Alpha virt. eigenvalues --    0.03437   0.04195   0.05102   0.05675   0.06014
 Alpha virt. eigenvalues --    0.06785   0.07457   0.08776   0.10027   0.10433
 Alpha virt. eigenvalues --    0.11591   0.12962   0.13744   0.15129   0.15422

 Mulliken charges:
               1
     1  C   -0.420337
     2  N    0.607795
     3  C   -0.606914
     4  C    0.017715
     5  O   -0.715814
     6  N    0.611955
     7  H    0.158851
     8  H    0.160755
     9  H    0.051723
    10  H    0.031888
    11  H   -0.014331
    12  H    0.143296
    13  H    0.133458
    14  H   -0.160041
 Sum of Mulliken charges =  -0.00000

 Dipole moment (field-independent basis, Debye):
    X=             -0.3173    Y=              1.4124    Z=             -0.3753  Tot=              1.4955

 Test job not archived.
 1\1\GINC-SE162\SP\RHF\Aug-CC-pVDZ\C3H8N2O1\OHZDE\09-Apr-2025\0\\#t hf
 aug-cc-pvdz iop(5/13=1,5/36=2,99/5=2) pseudo=read geom=check guess=(re
 ad,tcheck) scf=(maxcycle=1)\\title\\0,1\C,0,-1.84061154,-1.09016557,0.
 3464687\N,0,-0.76576278,-0.27298085,-0.18666819\C,0,-1.06212159,0.7812
 5567,-0.83473515\C,0,2.08809834,-1.02315281,-0.05116786\O,0,1.73616687
 ,-2.02214308,0.46985826\N,0,2.36002478,0.03599586,-0.61456089\H,0,-1.7
 5278771,-2.10167159,-0.0763168\H,0,-1.70159169,-1.18757412,1.43298672\
 H,0,-2.85797618,-0.70263683,0.14524907\H,0,-0.24657298,1.39075284,-1.2

 Normal termination of Gaussian 16 at Wed Apr  9 15:56:55 2025.
