 Gaussian 16, Revision C.01,

 ----------------------------------------------------------------------
 #t hf aug-cc-pvdz symm=none int=(grid=ultrafine) guess=(read,tcheck) s
 table=(opt,rrhf)
 ----------------------------------------------------------------------
 -----
 title
 -----
 Symbolic Z-matrix:
 Charge =  0 Multiplicity = 1

 SCF Done:  E(RHF) =  -380.722212479     A.U. after   13 cycles
 Normal termination of Gaussian 16 at Wed Apr  9 18:23:45 2025.
 Gaussian 16:  ES64L-G16RevC.01  3-Jul-2019

 ----------------------------------------------------------------------
 #t hf aug-cc-pvdz iop(5/13=1,5/36=2,99/5=2) pseudo=read geom=check gue
 ss=(read,tcheck) scf=(maxcycle=1)
 ----------------------------------------------------------------------
 -----
 title
 -----
 Structure from the checkpoint file:  "Grambow2020_wb97xd3_007518_reverse_mol2.chk"
 Charge =  0 Multiplicity = 1

                         Standard orientation:
 ---------------------------------------------------------------------
 Center     Atomic      Atomic             Coordinates (Angstroms)
 Number     Number       Type             X           Y           Z
 ---------------------------------------------------------------------
      1          8           0       -2.833264    0.229138    0.054356
      2          6           0       -1.573376   -0.401082   -0.082748
      3          6           0       -0.524355    0.690525   -0.058420
      4          6           0        0.898252    0.201314   -0.058403
      5          8           0        1.753911    1.284020   -0.096893
      6          6           0        1.333036   -1.104998   -0.549651
      7          8           0        1.247110   -0.810936    0.854210
      8          1           0       -3.513131   -0.444366    0.092236
      9          1           0       -1.525020   -0.957085   -1.028075
     10          1           0       -1.391955   -1.105642    0.737505
     11          1           0       -0.662950    1.294499    0.841428
     12          1           0       -0.659908    1.354471   -0.914252
     13          1           0        0.625354   -1.845153   -0.910889
     14          1           0        2.344258   -1.210331   -0.934541
     15          1           0        2.639958    0.981276    0.118543
 ---------------------------------------------------------------------

 SCF Done:  E(RHF) =  -381.111557688     A.U. after    2 cycles

 The electronic state is 1-A.
 Alpha  occ. eigenvalues --  -20.56861 -20.56681 -20.55173 -11.35730 -11.29869
 Alpha  occ. eigenvalues --  -11.28935 -11.23713  -1.53888  -1.45701  -1.45477
 Alpha  occ. eigenvalues --   -1.05857  -0.94413  -0.90040  -0.80125  -0.73329
 Alpha  occ. eigenvalues --   -0.73173  -0.67636  -0.67019  -0.62659  -0.58974
 Alpha  occ. eigenvalues --   -0.57064  -0.56862  -0.52873  -0.51831  -0.49911
 Alpha  occ. eigenvalues --   -0.46016  -0.44242  -0.42084
 Alpha virt. eigenvalues --    0.03231   0.03419   0.04515   0.04904   0.06166
 Alpha virt. eigenvalues --    0.06502   0.07473   0.08464   0.10092   0.12105
 Alpha virt. eigenvalues --    0.13740   0.14208   0.14358   0.15016   0.15234

 Mulliken charges:
               1
     1  O   -1.315139
     2  C    1.007470
     3  C   -0.733595
     4  C    2.678982
     5  O   -1.572346
     6  C    0.034299
     7  O   -1.373867
     8  H    0.311046
     9  H    0.129000
    10  H    0.152270
    11  H    0.239376
    12  H    0.232605
    13  H   -0.021957
    14  H   -0.073392
    15  H    0.305246
 Sum of Mulliken charges =  -0.00000

 Dipole moment (field-independent basis, Debye):
    X=              0.3495    Y=             -2.2933    Z=             -1.5017  Tot=              2.7634

 Test job not archived.
 1\1\GINC-SE232\SP\RHF\Aug-CC-pVDZ\C4H8O3\OHZDE\09-Apr-2025\0\\#t hf au
 g-cc-pvdz iop(5/13=1,5/36=2,99/5=2) pseudo=read geom=check guess=(read
 ,tcheck) scf=(maxcycle=1)\\title\\0,1\O,0,-2.46092301,1.21157877,-0.26
 867436\C,0,-1.08190795,1.0921551,0.02687401\C,0,-0.8004906,-0.3784134,
 0.25242853\C,0,0.65074686,-0.72209979,0.44972642\O,0,0.7697858,-2.0736
 2304,0.70487463\C,0,1.67596987,0.21243284,0.91057308\O,0,1.58264211,-0
 .19643424,-0.4637624\H,0,-2.65651941,2.12829902,-0.46521086\H,0,-0.831
 97735,1.67162491,0.92513322\H,0,-0.46616528,1.46301292,-0.8010503\H,0,

 Normal termination of Gaussian 16 at Wed Apr  9 18:23:50 2025.
