 Gaussian 16, Revision C.01,

 ----------------------------------------------------------------------
 #t hf aug-cc-pvdz symm=none int=(grid=ultrafine) guess=(read,tcheck) s
 table=(opt,rrhf)
 ----------------------------------------------------------------------
 -----
 title
 -----
 Symbolic Z-matrix:
 Charge =  0 Multiplicity = 1

 SCF Done:  E(RHF) =  -306.714713946     A.U. after   15 cycles
 Normal termination of Gaussian 16 at Wed Apr  9 18:54:49 2025.
 Gaussian 16:  ES64L-G16RevC.01  3-Jul-2019

 ----------------------------------------------------------------------
 #t hf aug-cc-pvdz iop(5/13=1,5/36=2,99/5=2) pseudo=read geom=check gue
 ss=(read,tcheck) scf=(maxcycle=1)
 ----------------------------------------------------------------------
 -----
 title
 -----
 Structure from the checkpoint file:  "Grambow2020_wb97xd3_008213_reverse_mol2.chk"
 Charge =  0 Multiplicity = 1

                         Standard orientation:
 ---------------------------------------------------------------------
 Center     Atomic      Atomic             Coordinates (Angstroms)
 Number     Number       Type             X           Y           Z
 ---------------------------------------------------------------------
      1          6           0       -2.916036   -0.306068   -0.316185
      2          8           0        1.663053   -1.359378    0.181090
      3          6           0        2.161624   -0.311097   -0.151027
      4          6           0        1.440004    0.956663   -0.359358
      5          6           0        0.195701    1.215740    0.049094
      6          6           0       -0.739887    0.292363    0.771860
      7          6           0       -1.604845   -0.450883   -0.211150
      8          1           0       -3.465611    0.374319    0.326245
      9          1           0       -3.489764   -0.868896   -1.042296
     10          1           0        3.254547   -0.254349   -0.329266
     11          1           0        2.003832    1.735586   -0.862437
     12          1           0       -0.205513    2.200142   -0.179014
     13          1           0       -0.173021   -0.430484    1.359697
     14          1           0       -1.372280    0.877719    1.442866
     15          1           0       -1.075983   -1.139318   -0.863915
 ---------------------------------------------------------------------

 SCF Done:  E(RHF) =  -307.031878033     A.U. after    2 cycles

 The electronic state is 1-A.
 Alpha  occ. eigenvalues --  -20.54346 -11.34335 -11.27860 -11.24779 -11.24559
 Alpha  occ. eigenvalues --  -11.24509 -11.23227  -1.47669  -1.11775  -1.05530
 Alpha  occ. eigenvalues --   -0.96411  -0.87610  -0.77803  -0.74469  -0.70610
 Alpha  occ. eigenvalues --   -0.65605  -0.64235  -0.61698  -0.60735  -0.55654
 Alpha  occ. eigenvalues --   -0.53859  -0.52815  -0.50642  -0.42054  -0.39294
 Alpha  occ. eigenvalues --   -0.37089
 Alpha virt. eigenvalues --    0.03141   0.03605   0.04261   0.04592   0.05600
 Alpha virt. eigenvalues --    0.06124   0.06329   0.07180   0.07813   0.10847
 Alpha virt. eigenvalues --    0.11316   0.12187   0.12602   0.13714   0.14334

 Mulliken charges:
               1
     1  C   -0.206609
     2  O   -1.211984
     3  C    0.792922
     4  C    0.275578
     5  C    0.504185
     6  C   -0.434647
     7  C    0.580053
     8  H   -0.087969
     9  H   -0.089157
    10  H    0.083033
    11  H   -0.203706
    12  H   -0.203781
    13  H    0.289229
    14  H    0.101096
    15  H   -0.188244
 Sum of Mulliken charges =  -0.00000

 Dipole moment (field-independent basis, Debye):
    X=              0.0503    Y=              2.6510    Z=             -0.3691  Tot=              2.6770

 Test job not archived.
 1\1\GINC-SE029\SP\RHF\Aug-CC-pVDZ\C6H8O1\OHZDE\09-Apr-2025\0\\#t hf au
 g-cc-pvdz iop(5/13=1,5/36=2,99/5=2) pseudo=read geom=check guess=(read
 ,tcheck) scf=(maxcycle=1)\\title\\0,1\C,0,-1.96835411,1.10171049,-1.45
 887615\O,0,0.02978974,-0.99532613,2.27403984\C,0,1.01794045,-1.4577749
 7,1.75686911\C,0,1.50246279,-1.15008252,0.39969653\C,0,1.09865399,-0.1
 2391013,-0.35273396\C,0,0.06712873,0.91011057,-0.01053744\C,0,-1.28797
 927,0.48208804,-0.50788449\H,0,-1.58061549,1.98923863,-1.94839333\H,0,
 -2.94206581,0.74981837,-1.77704829\H,0,1.6418338,-2.1844399,2.31560451

 Normal termination of Gaussian 16 at Wed Apr  9 18:54:55 2025.
