 Gaussian 16, Revision C.01,

 ----------------------------------------------------------------------
 #t hf aug-cc-pvdz symm=none int=(grid=ultrafine) guess=(read,tcheck) s
 table=(opt,rrhf)
 ----------------------------------------------------------------------
 -----
 title
 -----
 Symbolic Z-matrix:
 Charge =  0 Multiplicity = 1

 SCF Done:  E(RHF) =  -247.705021169     A.U. after   16 cycles
 Normal termination of Gaussian 16 at Wed Apr  9 16:53:04 2025.
 Gaussian 16:  ES64L-G16RevC.01  3-Jul-2019

 ----------------------------------------------------------------------
 #t hf aug-cc-pvdz iop(5/13=1,5/36=2,99/5=2) pseudo=read geom=check gue
 ss=(read,tcheck) scf=(maxcycle=1)
 ----------------------------------------------------------------------
 -----
 title
 -----
 Structure from the checkpoint file:  "Grambow2020_wb97xd3_006163_reverse_mol2.chk"
 Charge =  0 Multiplicity = 1

                         Standard orientation:
 ---------------------------------------------------------------------
 Center     Atomic      Atomic             Coordinates (Angstroms)
 Number     Number       Type             X           Y           Z
 ---------------------------------------------------------------------
      1          6           0        1.059019    1.435964   -0.009831
      2          6           0        1.228205    0.007981   -0.451560
      3          6           0        1.070774   -0.993254    0.563667
      4          6           0       -0.099086   -0.929257   -0.485910
      5          6           0       -1.211226   -0.292411   -0.084699
      6          7           0       -2.175858    0.330748    0.263226
      7          1           0        0.606555    2.053898   -0.788997
      8          1           0        2.063323    1.834125    0.156429
      9          1           0        0.503686    1.589176    0.932826
     10          1           0       -2.384327    1.241911   -0.136082
     11          1           0        0.805057   -0.755669    1.600558
     12          1           0        1.551595   -1.961116    0.448608
     13          1           0       -0.200993   -1.691696   -1.245923
 ---------------------------------------------------------------------

 SCF Done:  E(RHF) =  -247.964820833     A.U. after    2 cycles

 The electronic state is 1-A.
 Alpha  occ. eigenvalues --  -15.56374 -11.37322 -11.28207 -11.25988 -11.21942
 Alpha  occ. eigenvalues --  -11.21339  -1.30181  -1.16207  -0.98423  -0.93497
 Alpha  occ. eigenvalues --   -0.84366  -0.75771  -0.72016  -0.62899  -0.61987
 Alpha  occ. eigenvalues --   -0.58421  -0.56525  -0.54907  -0.53215  -0.46003
 Alpha  occ. eigenvalues --   -0.42337  -0.28554
 Alpha virt. eigenvalues --    0.02680   0.03992   0.04434   0.05101   0.05705
 Alpha virt. eigenvalues --    0.06765   0.07437   0.07938   0.09080   0.10401
 Alpha virt. eigenvalues --    0.10962   0.11829   0.13174   0.14243   0.14784

 Mulliken charges:
               1
     1  C   -0.430269
     2  C   -0.391971
     3  C    0.436089
     4  C    1.131831
     5  C   -2.139218
     6  N    1.004927
     7  H    0.201154
     8  H    0.112772
     9  H    0.149930
    10  H    0.179312
    11  H   -0.059873
    12  H   -0.026128
    13  H   -0.168556
 Sum of Mulliken charges =  -0.00000

 Dipole moment (field-independent basis, Debye):
    X=             -1.9678    Y=              0.0565    Z=              0.4870  Tot=              2.0280

 Test job not archived.
 1\1\GINC-SE138\SP\RHF\Aug-CC-pVDZ\C5H7N1\OHZDE\09-Apr-2025\0\\#t hf au
 g-cc-pvdz iop(5/13=1,5/36=2,99/5=2) pseudo=read geom=check guess=(read
 ,tcheck) scf=(maxcycle=1)\\title\\0,1\C,0,1.45993025,0.35725898,0.2502
 4995\C,0,0.61710432,-0.88864965,0.26571813\C,0,-0.52146992,-0.87383276
 ,1.13828466\C,0,-0.86513223,-0.80030139,-0.3949377\C,0,-1.16466612,0.4
 1961088,-0.86979614\N,0,-1.37135241,1.52272803,-1.29442318\H,0,1.88004
 605,0.55421125,-0.73887962\H,0,2.30755761,0.17102745,0.91481502\H,0,0.
 97187158,1.27722196,0.61894895\H,0,-0.69615421,1.98958658,-1.89381867\

 Normal termination of Gaussian 16 at Wed Apr  9 16:53:08 2025.
