 Gaussian 16, Revision C.01,

 ----------------------------------------------------------------------
 #t hf aug-cc-pvdz symm=none int=(grid=ultrafine) guess=(read,tcheck) s
 table=(opt,rrhf)
 ----------------------------------------------------------------------
 -----
 title
 -----
 Symbolic Z-matrix:
 Charge =  0 Multiplicity = 1

 SCF Done:  E(RHF) =  -263.771533401     A.U. after   15 cycles
 Normal termination of Gaussian 16 at Wed Apr  9 15:51:42 2025.
 Gaussian 16:  ES64L-G16RevC.01  3-Jul-2019

 ----------------------------------------------------------------------
 #t hf aug-cc-pvdz iop(5/13=1,5/36=2,99/5=2) pseudo=read geom=check gue
 ss=(read,tcheck) scf=(maxcycle=1)
 ----------------------------------------------------------------------
 -----
 title
 -----
 Structure from the checkpoint file:  "Grambow2020_b97d3_006862_reverse_mol2.chk"
 Charge =  0 Multiplicity = 1

                         Standard orientation:
 ---------------------------------------------------------------------
 Center     Atomic      Atomic             Coordinates (Angstroms)
 Number     Number       Type             X           Y           Z
 ---------------------------------------------------------------------
      1          6           0       -2.547666    0.513128   -0.312600
      2          6           0       -0.344544   -0.611892    0.082040
      3          6           0       -1.529264   -0.242372    0.510994
      4          7           0        1.867748    1.087205    0.036625
      5          7           0        2.061895   -0.157340   -0.001003
      6          6           0        0.892542   -0.943853   -0.255473
      7          1           0       -3.481568   -0.063122   -0.397229
      8          1           0       -2.792922    1.468801    0.174555
      9          1           0       -2.168082    0.722105   -1.319127
     10          1           0       -1.817040   -0.498077    1.537378
     11          1           0        2.796773    1.494814    0.280153
     12          1           0        1.128933   -1.923632   -0.674850
 ---------------------------------------------------------------------

 SCF Done:  E(RHF) =  -264.038690391     A.U. after    2 cycles

 The electronic state is 1-A.
 Alpha  occ. eigenvalues --  -15.57980 -15.56343 -11.27745 -11.27235 -11.26930
 Alpha  occ. eigenvalues --  -11.24993  -1.35413  -1.10314  -1.04810  -0.94755
 Alpha  occ. eigenvalues --   -0.87376  -0.76161  -0.69443  -0.68084  -0.63656
 Alpha  occ. eigenvalues --   -0.59068  -0.58304  -0.56526  -0.54156  -0.45438
 Alpha  occ. eigenvalues --   -0.38692  -0.37871
 Alpha virt. eigenvalues --    0.03353   0.03996   0.04373   0.04812   0.05111
 Alpha virt. eigenvalues --    0.06040   0.06779   0.09897   0.10890   0.11602
 Alpha virt. eigenvalues --    0.12109   0.12592   0.14108   0.14884   0.15669

 Mulliken charges:
               1
     1  C   -0.610122
     2  C    0.018157
     3  C    0.402532
     4  N    0.213454
     5  N   -0.196001
     6  C   -0.398528
     7  H    0.211747
     8  H    0.223874
     9  H    0.112567
    10  H   -0.105015
    11  H    0.135464
    12  H   -0.008129
 Sum of Mulliken charges =  -0.00000

 Dipole moment (field-independent basis, Debye):
    X=             -1.5014    Y=              0.0137    Z=              0.3231  Tot=              1.5358

 Test job not archived.
 1\1\GINC-SE138\SP\RHF\Aug-CC-pVDZ\C4H6N2\OHZDE\09-Apr-2025\0\\#t hf au
 g-cc-pvdz iop(5/13=1,5/36=2,99/5=2) pseudo=read geom=check guess=(read
 ,tcheck) scf=(maxcycle=1)\\title\\0,1\C,0,-1.86565454,-1.00640836,0.00
 05623\C,0,-0.01116795,0.65917004,-0.24820746\C,0,-0.91004254,-0.134863
 5,-0.782664\N,0,2.48642697,-0.22303757,0.6275525\N,0,2.32969978,1.0043
 1596,0.38871918\C,0,0.96927681,1.41780552,0.2183709\H,0,-2.90878893,-0
 .74631773,-0.23528319\H,0,-1.72021549,-2.06316458,-0.26942919\H,0,-1.7
 0882409,-0.8974078,1.07962463\H,0,-0.98869754,-0.17522686,-1.87529785\

 Normal termination of Gaussian 16 at Wed Apr  9 15:51:47 2025.
