 Gaussian 16, Revision C.01,

 ----------------------------------------------------------------------
 #t hf aug-cc-pvdz symm=none int=(grid=ultrafine) guess=(read,tcheck) s
 table=(opt,rrhf)
 ----------------------------------------------------------------------
 -----
 title
 -----
 Symbolic Z-matrix:
 Charge =  0 Multiplicity = 1

 SCF Done:  E(RHF) =  -305.649530327     A.U. after   16 cycles
 Normal termination of Gaussian 16 at Wed Apr  9 03:16:04 2025.
 Gaussian 16:  ES64L-G16RevC.01  3-Jul-2019

 ----------------------------------------------------------------------
 #t hf aug-cc-pvdz iop(5/13=1,5/36=2,99/5=2) pseudo=read geom=check gue
 ss=(read,tcheck) scf=(maxcycle=1)
 ----------------------------------------------------------------------
 -----
 title
 -----
 Structure from the checkpoint file:  "Grambow2020_b97d3_006966_reverse_mol1.chk"
 Charge =  0 Multiplicity = 1

                         Standard orientation:
 ---------------------------------------------------------------------
 Center     Atomic      Atomic             Coordinates (Angstroms)
 Number     Number       Type             X           Y           Z
 ---------------------------------------------------------------------
      1          8           0       -2.006888   -0.840485    0.137818
      2          6           0       -1.635777    0.476558   -0.213597
      3          6           0       -0.316247    0.925853    0.362244
      4          6           0        1.838180    0.752475   -0.011779
      5          6           0        1.824064   -0.701673    0.254825
      6          8           0        0.612894   -0.450580   -0.467482
      7          1           0       -1.222192   -1.377629   -0.088111
      8          1           0       -1.633298    0.645989   -1.307491
      9          1           0       -2.394413    1.152775    0.217646
     10          1           0       -0.118263    1.973043    0.130597
     11          1           0       -0.173947    0.705148    1.420250
     12          1           0        2.293435    0.940452   -1.003520
     13          1           0        1.692141   -1.070344    1.281077
     14          1           0        2.447160   -1.360194   -0.363292
 ---------------------------------------------------------------------

 SCF Done:  E(RHF) =  -305.964614681     A.U. after    2 cycles

 The electronic state is 1-A.
 Alpha  occ. eigenvalues --  -20.58013 -20.55026 -11.34990 -11.30249 -11.28942
 Alpha  occ. eigenvalues --  -11.25414  -1.45912  -1.43845  -1.04320  -0.95708
 Alpha  occ. eigenvalues --   -0.86354  -0.80349  -0.70500  -0.67966  -0.65706
 Alpha  occ. eigenvalues --   -0.62092  -0.59800  -0.58128  -0.54593  -0.51155
 Alpha  occ. eigenvalues --   -0.46399  -0.45493  -0.44687  -0.33793
 Alpha virt. eigenvalues --    0.03484   0.04014   0.04062   0.04725   0.06058
 Alpha virt. eigenvalues --    0.06753   0.07023   0.07718   0.09281   0.11691
 Alpha virt. eigenvalues --    0.13179   0.13510   0.14053   0.14754   0.14889

 Mulliken charges:
               1
     1  O   -1.164456
     2  C    0.668463
     3  C    0.032812
     4  C   -0.165406
     5  C    0.606660
     6  O   -1.084995
     7  H    0.389087
     8  H    0.178991
     9  H    0.133028
    10  H    0.171222
    11  H    0.115460
    12  H    0.068399
    13  H    0.038702
    14  H    0.012034
 Sum of Mulliken charges =  -0.00000

 Dipole moment (field-independent basis, Debye):
    X=              0.4721    Y=              0.6710    Z=              0.0480  Tot=              0.8219

 Test job not archived.
 1\1\GINC-SE222\SP\RHF\Aug-CC-pVDZ\C4H8O2\OHZDE\09-Apr-2025\0\\#t hf au
 g-cc-pvdz iop(5/13=1,5/36=2,99/5=2) pseudo=read geom=check guess=(read
 ,tcheck) scf=(maxcycle=1)\\title\\0,1\O,0,1.81287969,1.12691903,0.8266
 5606\C,0,1.7658974,-0.05464056,0.05365809\C,0,0.46018321,-0.80429501,0
 .14166934\C,0,-1.56758651,-0.77151867,-0.69414339\C,0,-1.87156403,0.52
 493171,-0.05177478\O,0,-0.51346373,0.64409535,-0.49117493\H,0,1.006847
 99,1.61450569,0.56610433\H,0,2.01743169,0.11665466,-1.01062838\H,0,2.5
 301215,-0.73904944,0.4614746\H,0,0.50648693,-1.74722445,-0.40441175\H,

 Normal termination of Gaussian 16 at Wed Apr  9 03:16:08 2025.
