 Gaussian 16, Revision C.01,

 ----------------------------------------------------------------------
 #t hf aug-cc-pvdz symm=none int=(grid=ultrafine) guess=(read,tcheck) s
 table=(opt,rrhf)
 ----------------------------------------------------------------------
 -----
 title
 -----
 Symbolic Z-matrix:
 Charge =  0 Multiplicity = 1

 SCF Done:  E(RHF) =  -302.883213784     A.U. after   14 cycles
 Normal termination of Gaussian 16 at Wed Apr  9 18:45:40 2025.
 Gaussian 16:  ES64L-G16RevC.01  3-Jul-2019

 ----------------------------------------------------------------------
 #t hf aug-cc-pvdz iop(5/13=1,5/36=2,99/5=2) pseudo=read geom=check gue
 ss=(read,tcheck) scf=(maxcycle=1)
 ----------------------------------------------------------------------
 -----
 title
 -----
 Structure from the checkpoint file:  "Grambow2020_wb97xd3_008031_reverse_mol2.chk"
 Charge =  0 Multiplicity = 1

                         Standard orientation:
 ---------------------------------------------------------------------
 Center     Atomic      Atomic             Coordinates (Angstroms)
 Number     Number       Type             X           Y           Z
 ---------------------------------------------------------------------
      1          6           0        0.951266   -1.544655    0.736811
      2          6           0        1.773404   -0.815962   -0.266088
      3          6           0       -2.706535   -0.158016    0.157799
      4          7           0       -2.036050   -0.668473   -0.781798
      5          6           0        1.690885    0.479938   -0.564497
      6          6           0        0.748909    1.354613    0.063814
      7          7           0       -0.023218    2.057143    0.546087
      8          1           0        0.332054   -0.872158    1.329150
      9          1           0        0.291340   -2.253630    0.230178
     10          1           0        1.595215   -2.119090    1.406065
     11          1           0        2.504624   -1.400397   -0.816522
     12          1           0       -2.544399    0.851253    0.546248
     13          1           0       -3.495492   -0.750409    0.623241
     14          1           0       -1.342404   -0.000256   -1.118278
     15          1           0        2.326366    0.928484   -1.317133
 ---------------------------------------------------------------------

 SCF Done:  E(RHF) =  -303.196193691     A.U. after    2 cycles

 The electronic state is 1-A.
 Alpha  occ. eigenvalues --  -15.51774 -15.49703 -11.29551 -11.28920 -11.28558
 Alpha  occ. eigenvalues --  -11.28310 -11.25252  -1.24392  -1.21120  -1.12408
 Alpha  occ. eigenvalues --   -0.99124  -0.85564  -0.84701  -0.71253  -0.70486
 Alpha  occ. eigenvalues --   -0.68511  -0.62600  -0.61352  -0.60085  -0.56987
 Alpha  occ. eigenvalues --   -0.55118  -0.54513  -0.50867  -0.47634  -0.45745
 Alpha  occ. eigenvalues --   -0.40268
 Alpha virt. eigenvalues --    0.02806   0.03675   0.04114   0.04876   0.06182
 Alpha virt. eigenvalues --    0.06578   0.06991   0.07367   0.07813   0.09513
 Alpha virt. eigenvalues --    0.10145   0.12023   0.12159   0.13265   0.13797

 Mulliken charges:
               1
     1  C   -0.560888
     2  C    0.262114
     3  C   -0.651774
     4  N    0.536157
     5  C    1.097932
     6  C   -2.288013
     7  N    1.026000
     8  H    0.231910
     9  H    0.322147
    10  H    0.161686
    11  H   -0.160691
    12  H    0.088533
    13  H   -0.018390
    14  H    0.084464
    15  H   -0.131187
 Sum of Mulliken charges =   0.00000

 Dipole moment (field-independent basis, Debye):
    X=              2.7212    Y=             -2.0826    Z=             -0.0222  Tot=              3.4268

 Test job not archived.
 1\1\GINC-SE224\SP\RHF\Aug-CC-pVDZ\C5H8N2\OHZDE\09-Apr-2025\0\\#t hf au
 g-cc-pvdz iop(5/13=1,5/36=2,99/5=2) pseudo=read geom=check guess=(read
 ,tcheck) scf=(maxcycle=1)\\title\\0,1\C,0,1.61104711,-0.48060796,0.027
 66597\C,0,0.92022804,-1.076285,1.20267578\C,0,-1.02776367,2.07733873,-
 1.43217003\N,0,-0.65049826,2.1304273,-0.22891961\C,0,-0.35158904,-1.46
 978634,1.25608041\C,0,-1.2419967,-1.34457506,0.14313581\N,0,-1.9695075
 4,-1.22274446,-0.73902106\H,0,0.99647861,-0.51163636,-0.87115875\H,0,1
 .85704521,0.56443271,0.23308801\H,0,2.54948852,-1.00532301,-0.16351024

 Normal termination of Gaussian 16 at Wed Apr  9 18:45:45 2025.
