 Gaussian 16, Revision C.01,

 ----------------------------------------------------------------------
 #t hf aug-cc-pvdz symm=none int=(grid=ultrafine) guess=(read,tcheck) s
 table=(opt,rrhf)
 ----------------------------------------------------------------------
 -----
 title
 -----
 Symbolic Z-matrix:
 Charge =  0 Multiplicity = 1

 SCF Done:  E(RHF) =  -284.720789436     A.U. after   15 cycles
 Normal termination of Gaussian 16 at Wed Apr  9 17:07:17 2025.
 Gaussian 16:  ES64L-G16RevC.01  3-Jul-2019

 ----------------------------------------------------------------------
 #t hf aug-cc-pvdz iop(5/13=1,5/36=2,99/5=2) pseudo=read geom=check gue
 ss=(read,tcheck) scf=(maxcycle=1)
 ----------------------------------------------------------------------
 -----
 title
 -----
 Structure from the checkpoint file:  "Grambow2020_wb97xd3_006245_reverse_mol2.chk"
 Charge =  0 Multiplicity = 1

                         Standard orientation:
 ---------------------------------------------------------------------
 Center     Atomic      Atomic             Coordinates (Angstroms)
 Number     Number       Type             X           Y           Z
 ---------------------------------------------------------------------
      1          8           0        2.382504    0.147933   -0.223166
      2          6           0        1.399349   -0.217148    0.332215
      3          7           0        0.093623   -0.079839   -0.277865
      4          6           0       -0.844873    1.042062    0.206937
      5          6           0       -1.986246    0.164827   -0.267604
      6          6           0       -1.080288   -1.008865    0.036392
      7          1           0        1.365661   -0.672280    1.331476
      8          1           0       -0.641448    1.116254    1.299824
      9          1           0       -0.601581    1.998040   -0.263172
     10          1           0       -2.927176    0.224412    0.275902
     11          1           0        0.157659    0.029726   -1.290050
     12          1           0       -1.080555   -1.918019   -0.571775
     13          1           0       -0.915603   -1.287989    1.100534
 ---------------------------------------------------------------------

 SCF Done:  E(RHF) =  -285.016177227     A.U. after    2 cycles

 The electronic state is 1-A.
 Alpha  occ. eigenvalues --  -20.60701 -15.62295 -11.42301 -11.29689 -11.29400
 Alpha  occ. eigenvalues --  -11.15457  -1.55353  -1.33790  -1.05799  -0.95170
 Alpha  occ. eigenvalues --   -0.92052  -0.79215  -0.77075  -0.74155  -0.70322
 Alpha  occ. eigenvalues --   -0.65107  -0.60002  -0.57963  -0.55772  -0.53296
 Alpha  occ. eigenvalues --   -0.48128  -0.47590  -0.25630
 Alpha virt. eigenvalues --    0.02865   0.03851   0.04286   0.04989   0.05823
 Alpha virt. eigenvalues --    0.06364   0.06658   0.07837   0.09161   0.09821
 Alpha virt. eigenvalues --    0.12103   0.13828   0.14086   0.14757   0.15144

 Mulliken charges:
               1
     1  O   -1.000184
     2  C    0.788727
     3  N    0.105458
     4  C   -0.213434
     5  C    0.113605
     6  C   -0.268484
     7  H    0.107640
     8  H    0.014250
     9  H    0.020277
    10  H   -0.061840
    11  H    0.412264
    12  H   -0.017644
    13  H   -0.000635
 Sum of Mulliken charges =  -0.00000

 Dipole moment (field-independent basis, Debye):
    X=              2.6125    Y=             -1.2869    Z=              2.4818  Tot=              3.8263

 Test job not archived.
 1\1\GINC-SE041\SP\RHF\Aug-CC-pVDZ\C4H7N1O1\OHZDE\09-Apr-2025\0\\#t hf
 aug-cc-pvdz iop(5/13=1,5/36=2,99/5=2) pseudo=read geom=check guess=(re
 ad,tcheck) scf=(maxcycle=1)\\title\\0,1\O,0,2.14579843,0.70112889,-1.7
 8828867\C,0,1.67583388,0.24585513,-0.7982457\N,0,0.25482243,-0.0070093
 1,-0.68529376\C,0,-0.61491173,0.96266054,0.13797556\C,0,-1.55841304,-0
 .20567416,0.3435547\C,0,-0.3346555,-1.08798231,0.22241017\H,0,2.236620
 98,-0.01609113,0.10933603\H,0,0.04515517,1.27594944,0.97907548\H,0,-0.
 88901919,1.8461923,-0.44368077\H,0,-2.11387444,-0.24631658,1.27849339\

 Normal termination of Gaussian 16 at Wed Apr  9 17:07:21 2025.
