 Gaussian 16, Revision C.01,

 ----------------------------------------------------------------------
 #t hf aug-cc-pvdz symm=none int=(grid=ultrafine) guess=(read,tcheck) s
 table=(opt,rrhf)
 ----------------------------------------------------------------------
 -----
 title
 -----
 Symbolic Z-matrix:
 Charge =  0 Multiplicity = 1

 SCF Done:  E(RHF) =  -322.724707187     A.U. after   14 cycles
 Normal termination of Gaussian 16 at Wed Apr  9 03:39:26 2025.
 Gaussian 16:  ES64L-G16RevC.01  3-Jul-2019

 ----------------------------------------------------------------------
 #t hf aug-cc-pvdz iop(5/13=1,5/36=2,99/5=2) pseudo=read geom=check gue
 ss=(read,tcheck) scf=(maxcycle=1)
 ----------------------------------------------------------------------
 -----
 title
 -----
 Structure from the checkpoint file:  "Grambow2020_wb97xd3_007396_reverse_mol2.chk"
 Charge =  0 Multiplicity = 1

                         Standard orientation:
 ---------------------------------------------------------------------
 Center     Atomic      Atomic             Coordinates (Angstroms)
 Number     Number       Type             X           Y           Z
 ---------------------------------------------------------------------
      1          6           0        0.969529    1.163510   -0.356637
      2          6           0        1.608211   -0.146658   -0.025683
      3          6           0       -0.325391    1.384372    0.414000
      4          8           0       -1.424291    0.623934   -0.079624
      5          6           0       -1.365082   -0.712766   -0.147542
      6          7           0       -0.422143   -1.541315   -0.011739
      7          6           0        0.938930   -1.282774    0.164295
      8          1           0        0.758578    1.252038   -1.427245
      9          1           0        1.653000    1.979588   -0.109343
     10          1           0        2.684350   -0.170259    0.104206
     11          1           0       -0.658385    2.418162    0.327918
     12          1           0       -0.179839    1.151806    1.471730
     13          1           0       -2.360150   -1.092460   -0.370296
     14          1           0        1.494601   -2.175255    0.431592
 ---------------------------------------------------------------------

 SCF Done:  E(RHF) =  -323.055089878     A.U. after    2 cycles

 The electronic state is 1-A.
 Alpha  occ. eigenvalues --  -20.58856 -15.48742 -11.35007 -11.30512 -11.26516
 Alpha  occ. eigenvalues --  -11.24826 -11.23392  -1.52277  -1.23294  -1.09909
 Alpha  occ. eigenvalues --   -0.99536  -0.94875  -0.82628  -0.77172  -0.73385
 Alpha  occ. eigenvalues --   -0.69347  -0.64812  -0.63035  -0.61153  -0.57578
 Alpha  occ. eigenvalues --   -0.54397  -0.52326  -0.50522  -0.46787  -0.44141
 Alpha  occ. eigenvalues --   -0.34071
 Alpha virt. eigenvalues --    0.03319   0.03984   0.04134   0.04449   0.05702
 Alpha virt. eigenvalues --    0.06303   0.06906   0.09649   0.10425   0.11314
 Alpha virt. eigenvalues --    0.12013   0.12798   0.14197   0.14623   0.14645

 Mulliken charges:
               1
     1  C   -0.713408
     2  C    0.957286
     3  C    0.608517
     4  O   -1.191154
     5  C    0.134912
     6  N    0.986898
     7  C   -0.893697
     8  H    0.241863
     9  H    0.173275
    10  H   -0.197538
    11  H   -0.030197
    12  H    0.184730
    13  H   -0.083650
    14  H   -0.177838
 Sum of Mulliken charges =   0.00000

 Dipole moment (field-independent basis, Debye):
    X=              0.6025    Y=              2.6013    Z=              0.3138  Tot=              2.6885

 Test job not archived.
 1\1\GINC-SE329\SP\RHF\Aug-CC-pVDZ\C5H7N1O1\OHZDE\09-Apr-2025\0\\#t hf
 aug-cc-pvdz iop(5/13=1,5/36=2,99/5=2) pseudo=read geom=check guess=(re
 ad,tcheck) scf=(maxcycle=1)\\title\\0,1\C,0,-1.09022785,0.4759111,0.42
 798029\C,0,-1.11411263,-0.45446603,-0.74155602\C,0,0.22616939,1.234391
 3,0.53421787\O,0,1.30517538,0.4457468,1.02747123\C,0,1.68116766,-0.678
 7871,0.40382154\N,0,1.16409172,-1.36490306,-0.52135253\C,0,-0.07787721
 ,-1.19279457,-1.13636688\H,0,-1.26560214,-0.05350825,1.37005262\H,0,-1
 .89535145,1.20866533,0.33249733\H,0,-2.02225393,-0.50784951,-1.3314146

 Normal termination of Gaussian 16 at Wed Apr  9 03:39:31 2025.
