 Gaussian 16, Revision C.01,

 ----------------------------------------------------------------------
 #t hf aug-cc-pvdz symm=none int=(grid=ultrafine) guess=(read,tcheck) s
 table=(opt,rrhf)
 ----------------------------------------------------------------------
 -----
 title
 -----
 Symbolic Z-matrix:
 Charge =  0 Multiplicity = 1

 SCF Done:  E(RHF) =  -283.722429012     A.U. after   15 cycles
 Normal termination of Gaussian 16 at Wed Apr  9 03:16:20 2025.
 Gaussian 16:  ES64L-G16RevC.01  3-Jul-2019

 ----------------------------------------------------------------------
 #t hf aug-cc-pvdz iop(5/13=1,5/36=2,99/5=2) pseudo=read geom=check gue
 ss=(read,tcheck) scf=(maxcycle=1)
 ----------------------------------------------------------------------
 -----
 title
 -----
 Structure from the checkpoint file:  "Grambow2020_b97d3_006993_forward_mol2.chk"
 Charge =  0 Multiplicity = 1

                         Standard orientation:
 ---------------------------------------------------------------------
 Center     Atomic      Atomic             Coordinates (Angstroms)
 Number     Number       Type             X           Y           Z
 ---------------------------------------------------------------------
      1          6           0        0.839485    1.418425    0.122670
      2          6           0        0.981082   -0.080370   -0.004360
      3          8           0        2.020095   -0.650422   -0.276476
      4          6           0       -0.292155   -0.936302    0.280290
      5          6           0       -1.560857   -0.271048    0.001362
      6          7           0       -2.551060    0.303314   -0.241796
      7          1           0        1.821423    1.895785    0.046236
      8          1           0        0.356732    1.683680    1.074928
      9          1           0        0.179143    1.794763   -0.672888
     10          1           0       -0.256730   -1.208960    1.348231
     11          1           0       -0.209233   -1.869325   -0.291900
 ---------------------------------------------------------------------

 SCF Done:  E(RHF) =  -284.005123017     A.U. after    2 cycles

 The electronic state is 1-A.
 Alpha  occ. eigenvalues --  -20.56783 -15.53745 -11.38149 -11.31735 -11.30736
 Alpha  occ. eigenvalues --  -11.26878  -1.49634  -1.24372  -1.09800  -1.01812
 Alpha  occ. eigenvalues --   -0.80636  -0.73241  -0.68573  -0.68026  -0.63932
 Alpha  occ. eigenvalues --   -0.61434  -0.60772  -0.57575  -0.52735  -0.52038
 Alpha  occ. eigenvalues --   -0.49998  -0.43841
 Alpha virt. eigenvalues --    0.02897   0.03920   0.04340   0.05681   0.06243
 Alpha virt. eigenvalues --    0.08006   0.08561   0.10554   0.11688   0.12199
 Alpha virt. eigenvalues --    0.12790   0.13789   0.14384   0.14662   0.15176

 Mulliken charges:
               1
     1  C   -0.551601
     2  C    0.988117
     3  O   -1.299190
     4  C   -0.013430
     5  C   -1.315458
     6  N    0.815406
     7  H    0.074276
     8  H    0.309267
     9  H    0.355062
    10  H    0.372559
    11  H    0.264993
 Sum of Mulliken charges =  -0.00000

 Dipole moment (field-independent basis, Debye):
    X=              1.5128    Y=             -0.3412    Z=              1.6176  Tot=              2.2409

 Test job not archived.
 1\1\GINC-SE029\SP\RHF\Aug-CC-pVDZ\C4H5N1O1\OHZDE\09-Apr-2025\0\\#t hf
 aug-cc-pvdz iop(5/13=1,5/36=2,99/5=2) pseudo=read geom=check guess=(re
 ad,tcheck) scf=(maxcycle=1)\\title\\0,1\C,0,-1.38276951,0.28824627,-0.
 18127619\C,0,-0.40846939,-0.69735864,0.42030221\O,0,-0.7305451,-1.6481
 061,1.10652289\C,0,1.10202044,-0.48806748,0.0895528\C,0,1.4921695,0.89
 27169,-0.17725845\N,0,1.75597008,2.01494217,-0.37860088\H,0,-2.4103484
 ,-0.04376679,-0.00304386\H,0,-1.19924334,0.4070593,-1.25942667\H,0,-1.
 22824122,1.28030898,0.26875303\H,0,1.31769545,-1.10084512,-0.80156085\

 Normal termination of Gaussian 16 at Wed Apr  9 03:16:24 2025.
