 Gaussian 16, Revision C.01,

 ----------------------------------------------------------------------
 #t hf aug-cc-pvdz symm=none int=(grid=ultrafine) guess=(read,tcheck) s
 table=(opt,rrhf)
 ----------------------------------------------------------------------
 -----
 title
 -----
 Symbolic Z-matrix:
 Charge =  0 Multiplicity = 1

 SCF Done:  E(RHF) =  -302.744646939     A.U. after   16 cycles
 Normal termination of Gaussian 16 at Wed Apr  9 18:45:44 2025.
 Gaussian 16:  ES64L-G16RevC.01  3-Jul-2019

 ----------------------------------------------------------------------
 #t hf aug-cc-pvdz iop(5/13=1,5/36=2,99/5=2) pseudo=read geom=check gue
 ss=(read,tcheck) scf=(maxcycle=1)
 ----------------------------------------------------------------------
 -----
 title
 -----
 Structure from the checkpoint file:  "Grambow2020_wb97xd3_008038_reverse_mol1.chk"
 Charge =  0 Multiplicity = 1

                         Standard orientation:
 ---------------------------------------------------------------------
 Center     Atomic      Atomic             Coordinates (Angstroms)
 Number     Number       Type             X           Y           Z
 ---------------------------------------------------------------------
      1          6           0       -0.212480    1.889926   -0.342083
      2          6           0       -0.718131    0.771187    0.539981
      3          6           0       -1.964011   -0.699811   -0.223774
      4          7           0       -0.697201   -1.315976   -0.460247
      5          6           0        0.090394   -0.555669    0.493973
      6          6           0        1.510560   -0.404167    0.143982
      7          7           0        2.611428   -0.254103   -0.140537
      8          1           0       -0.047333    1.545324   -1.365631
      9          1           0       -0.915773    2.722226   -0.367922
     10          1           0        0.743377    2.259493    0.037609
     11          1           0       -0.980950    1.101608    1.542755
     12          1           0       -1.803668    0.544165   -0.160876
     13          1           0       -2.293762   -0.965878    0.788985
     14          1           0       -0.383691   -1.178138   -1.412360
     15          1           0        0.044219   -1.047045    1.470452
 ---------------------------------------------------------------------

 SCF Done:  E(RHF) =  -303.058277325     A.U. after    2 cycles

 The electronic state is 1-A.
 Alpha  occ. eigenvalues --  -15.53014 -15.52372 -11.33994 -11.31436 -11.29182
 Alpha  occ. eigenvalues --  -11.28584 -11.26391  -1.28677  -1.24781  -1.08806
 Alpha  occ. eigenvalues --   -1.00429  -0.93605  -0.81846  -0.76065  -0.71852
 Alpha  occ. eigenvalues --   -0.68231  -0.64469  -0.62336  -0.60893  -0.59021
 Alpha  occ. eigenvalues --   -0.56412  -0.54503  -0.51961  -0.51520  -0.44913
 Alpha  occ. eigenvalues --   -0.34898
 Alpha virt. eigenvalues --    0.02583   0.03446   0.03931   0.04410   0.05776
 Alpha virt. eigenvalues --    0.05984   0.07011   0.07846   0.08897   0.09514
 Alpha virt. eigenvalues --    0.11266   0.12109   0.12702   0.12844   0.13755

 Mulliken charges:
               1
     1  C   -0.303656
     2  C   -0.565669
     3  C   -0.711909
     4  N    0.487855
     5  C    0.250384
     6  C   -2.018239
     7  N    1.091365
     8  H    0.254217
     9  H    0.067197
    10  H    0.248626
    11  H   -0.006352
    12  H    0.667752
    13  H    0.186178
    14  H    0.336850
    15  H    0.015402
 Sum of Mulliken charges =   0.00000

 Dipole moment (field-independent basis, Debye):
    X=             -2.1727    Y=              2.3309    Z=              2.1040  Tot=              3.8185

 Test job not archived.
 1\1\GINC-SE114\SP\RHF\Aug-CC-pVDZ\C5H8N2\OHZDE\09-Apr-2025\0\\#t hf au
 g-cc-pvdz iop(5/13=1,5/36=2,99/5=2) pseudo=read geom=check guess=(read
 ,tcheck) scf=(maxcycle=1)\\title\\0,1\C,0,1.32588148,-0.50074073,-0.84
 887191\C,0,0.69163008,0.28681228,0.27486476\C,0,-0.68080117,1.78837329
 ,-0.12653132\N,0,-1.57304503,0.68056557,0.00404147\C,0,-0.70217374,-0.
 20641444,0.7548793\C,0,-0.95543681,-1.64072353,0.552561\N,0,-1.1261823
 1,-2.76052045,0.37289441\H,0,0.63033598,-0.63753276,-1.68024305\H,0,2.
 21956662,-0.00327336,-1.22552314\H,0,1.61001432,-1.49401356,-0.4923820

 Normal termination of Gaussian 16 at Wed Apr  9 18:45:49 2025.
