 Gaussian 16, Revision C.01,

 ----------------------------------------------------------------------
 #t hf aug-cc-pvdz symm=none int=(grid=ultrafine) guess=(read,tcheck) s
 table=(opt,rrhf)
 ----------------------------------------------------------------------
 -----
 title
 -----
 Symbolic Z-matrix:
 Charge =  0 Multiplicity = 1

 SCF Done:  E(RHF) =  -307.648346011     A.U. after   15 cycles

 1\1\GINC-SE094\Stability\RHF\Aug-CC-pVDZ\C6H10O1\OHZDE\09-Apr-2025\0\\
 #t hf aug-cc-pvdz symm=none int=(grid=ultrafine) guess=(read,tcheck) s
 table=(opt,rrhf)\\title\\0,1\C,0,1.77766591,0.15279935,-0.78253278\C,0
 ,0.50225994,0.16837161,-0.00377906\C,0,0.05742493,-1.15213991,0.672816
 74\C,0,-1.15494703,-1.14957877,-0.31635821\C,0,-0.88694102,0.36860703,
 -0.57165289\C,0,-1.15068456,1.1777837,0.70578912\O,0,0.29211032,1.5785
 5487,0.60842672\H,0,2.64693168,0.10974496,-0.12174806\H,0,1.79079759,-
 0.7339463,-1.4192342\H,0,1.85154999,1.03056877,-1.42725946\H,0,0.78916

 Normal termination of Gaussian 16 at Wed Apr  9 03:34:08 2025.
 Gaussian 16:  ES64L-G16RevC.01  3-Jul-2019

 ----------------------------------------------------------------------
 #t hf aug-cc-pvdz iop(5/13=1,5/36=2,99/5=2) pseudo=read geom=check gue
 ss=(read,tcheck) scf=(maxcycle=1)
 ----------------------------------------------------------------------
 -----
 title
 -----
 Structure from the checkpoint file:  "Grambow2020_wb97xd3_007029_forward_mol1.chk"
 Charge =  0 Multiplicity = 1

                         Standard orientation:
 ---------------------------------------------------------------------
 Center     Atomic      Atomic             Coordinates (Angstroms)
 Number     Number       Type             X           Y           Z
 ---------------------------------------------------------------------
      1          6           0        1.962795   -0.318987   -0.235955
      2          6           0        0.534089   -0.042392    0.104126
      3          6           0       -0.250854   -1.143699    0.859372
      4          6           0       -1.127457   -1.281616   -0.429374
      5          6           0       -0.602536    0.118553   -0.883109
      6          6           0       -1.104363    1.210237    0.072182
      7          8           0        0.347716    1.480253    0.337350
      8          1           0        2.599456   -0.271063    0.650882
      9          1           0        2.037099   -1.325009   -0.653419
     10          1           0        2.328038    0.384235   -0.986746
     11          1           0        0.368537   -1.996660    1.141216
     12          1           0       -0.796791   -0.826799    1.744159
     13          1           0       -2.202634   -1.389734   -0.280034
     14          1           0       -0.787146   -2.094907   -1.071310
     15          1           0        0.347749    1.395484   -0.858689
     16          1           0       -1.563251    0.928770    1.022372
     17          1           0       -1.582830    2.101089   -0.330694
 ---------------------------------------------------------------------

 SCF Done:  E(RHF) =  -307.975043986     A.U. after    2 cycles

 The electronic state is 1-A.
 Alpha  occ. eigenvalues --  -20.62199 -11.30435 -11.29854 -11.24366 -11.23724
 Alpha  occ. eigenvalues --  -11.23037 -11.18871  -1.52183  -1.13815  -1.01828
 Alpha  occ. eigenvalues --   -0.94463  -0.87628  -0.85917  -0.74528  -0.68642
 Alpha  occ. eigenvalues --   -0.67589  -0.63370  -0.60104  -0.57823  -0.56990
 Alpha  occ. eigenvalues --   -0.54406  -0.52855  -0.52096  -0.47556  -0.44998
 Alpha  occ. eigenvalues --   -0.41795  -0.29604
 Alpha virt. eigenvalues --    0.03416   0.03631   0.04034   0.04328   0.05587
 Alpha virt. eigenvalues --    0.06115   0.06328   0.07224   0.08711   0.09823
 Alpha virt. eigenvalues --    0.10495   0.11750   0.13372   0.14015   0.14100

 Mulliken charges:
               1
     1  C   -0.488471
     2  C    0.850326
     3  C   -0.062208
     4  C    0.102075
     5  C   -0.831007
     6  C    0.675137
     7  O   -1.595330
     8  H    0.254097
     9  H    0.272418
    10  H    0.176360
    11  H   -0.024250
    12  H    0.035713
    13  H    0.003952
    14  H    0.031826
    15  H    0.652796
    16  H    0.003568
    17  H   -0.057002
 Sum of Mulliken charges =  -0.00000

 Dipole moment (field-independent basis, Debye):
    X=              0.3664    Y=             -0.3503    Z=              2.0099  Tot=              2.0728

 Test job not archived.
 1\1\GINC-SE094\SP\RHF\Aug-CC-pVDZ\C6H10O1\OHZDE\09-Apr-2025\0\\#t hf a
 ug-cc-pvdz iop(5/13=1,5/36=2,99/5=2) pseudo=read geom=check guess=(rea
 d,tcheck) scf=(maxcycle=1)\\title\\0,1\C,0,1.77766591,0.15279935,-0.78
 253278\C,0,0.50225994,0.16837161,-0.00377906\C,0,0.05742493,-1.1521399
 1,0.67281674\C,0,-1.15494703,-1.14957877,-0.31635821\C,0,-0.88694102,0
 .36860703,-0.57165289\C,0,-1.15068456,1.1777837,0.70578912\O,0,0.29211
 032,1.57855487,0.60842672\H,0,2.64693168,0.10974496,-0.12174806\H,0,1.
 79079759,-0.7339463,-1.4192342\H,0,1.85154999,1.03056877,-1.42725946\H

 Normal termination of Gaussian 16 at Wed Apr  9 03:34:14 2025.
