 Gaussian 16, Revision C.01,

 ----------------------------------------------------------------------
 #t hf aug-cc-pvdz symm=none int=(grid=ultrafine) guess=(read,tcheck) s
 table=(opt,rrhf)
 ----------------------------------------------------------------------
 -----
 title
 -----
 Symbolic Z-matrix:
 Charge =  0 Multiplicity = 1

 SCF Done:  E(RHF) =  -343.739831017     A.U. after   12 cycles
 Normal termination of Gaussian 16 at Wed Apr  9 18:51:45 2025.
 Gaussian 16:  ES64L-G16RevC.01  3-Jul-2019

 ----------------------------------------------------------------------
 #t hf aug-cc-pvdz iop(5/13=1,5/36=2,99/5=2) pseudo=read geom=check gue
 ss=(read,tcheck) scf=(maxcycle=1)
 ----------------------------------------------------------------------
 -----
 title
 -----
 Structure from the checkpoint file:  "Grambow2020_wb97xd3_008127_forward_mol2.chk"
 Charge =  0 Multiplicity = 1

                         Standard orientation:
 ---------------------------------------------------------------------
 Center     Atomic      Atomic             Coordinates (Angstroms)
 Number     Number       Type             X           Y           Z
 ---------------------------------------------------------------------
      1          6           0       -1.230120    0.721771   -0.422895
      2          8           0       -1.154110   -0.705724   -0.560563
      3          6           0        0.002067   -1.087744    0.151959
      4          6           0        0.000523   -0.160872    1.359328
      5          6           0       -0.001779    1.056158    0.426927
      6          6           0        1.227016    0.725421   -0.423910
      7          8           0        1.157100   -0.702536   -0.559939
      8          1           0       -2.169403    0.990624    0.070022
      9          1           0       -1.201864    1.185503   -1.412280
     10          1           0        0.003236   -2.165653    0.284479
     11          1           0        0.897012   -0.252500    1.970970
     12          1           0       -0.896283   -0.254514    1.970272
     13          1           0       -0.002572    2.046203    0.877159
     14          1           0        1.194671    1.188619   -1.413437
     15          1           0        2.165046    0.999392    0.068381
 ---------------------------------------------------------------------

 SCF Done:  E(RHF) =  -344.095265199     A.U. after    2 cycles

 The electronic state is 1-A.
 Alpha  occ. eigenvalues --  -20.54345 -20.54334 -11.33510 -11.28721 -11.28684
 Alpha  occ. eigenvalues --  -11.25019 -11.23802  -1.51250  -1.43007  -1.10030
 Alpha  occ. eigenvalues --   -1.01031  -0.91574  -0.82953  -0.77204  -0.74080
 Alpha  occ. eigenvalues --   -0.70303  -0.67336  -0.60662  -0.58579  -0.57919
 Alpha  occ. eigenvalues --   -0.53873  -0.53186  -0.50956  -0.50158  -0.49027
 Alpha  occ. eigenvalues --   -0.42047  -0.40887
 Alpha virt. eigenvalues --    0.03002   0.03875   0.03994   0.04482   0.06059
 Alpha virt. eigenvalues --    0.06205   0.06435   0.08594   0.10664   0.11313
 Alpha virt. eigenvalues --    0.12325   0.12982   0.13777   0.14032   0.14914

 Mulliken charges:
               1
     1  C    0.691073
     2  O   -1.452486
     3  C    1.934152
     4  C   -0.004806
     5  C   -0.762626
     6  C    0.689628
     7  O   -1.452352
     8  H    0.053639
     9  H    0.048999
    10  H    0.108012
    11  H    0.022113
    12  H    0.023112
    13  H   -0.002585
    14  H    0.049984
    15  H    0.054142
 Sum of Mulliken charges =  -0.00000

 Dipole moment (field-independent basis, Debye):
    X=             -0.0042    Y=              2.1587    Z=              1.8181  Tot=              2.8223

 Test job not archived.
 1\1\GINC-SE115\SP\RHF\Aug-CC-pVDZ\C5H8O2\OHZDE\09-Apr-2025\0\\#t hf au
 g-cc-pvdz iop(5/13=1,5/36=2,99/5=2) pseudo=read geom=check guess=(read
 ,tcheck) scf=(maxcycle=1)\\title\\0,1\C,0,-1.24659044,0.61439426,0.389
 89099\O,0,-0.76068614,1.22261737,-0.81693693\C,0,0.37395575,0.46858233
 ,-1.1835305\C,0,-0.01430502,-0.95886668,-0.82509131\C,0,-0.25775612,-0
 .52974519,0.62650242\C,0,1.09741371,0.11380813,0.93081035\O,0,1.444011
 57,0.75040178,-0.30897707\H,0,-2.27027979,0.26092487,0.23298072\H,0,-1
 .24440185,1.35209316,1.19644187\H,0,0.66216428,0.72296097,-2.199246\H,

 Normal termination of Gaussian 16 at Wed Apr  9 18:51:51 2025.
