 Gaussian 16, Revision C.01,

 ----------------------------------------------------------------------
 #t hf aug-cc-pvdz symm=none int=(grid=ultrafine) guess=(read,tcheck) s
 table=(opt,rrhf)
 ----------------------------------------------------------------------
 -----
 title
 -----
 Symbolic Z-matrix:
 Charge =  0 Multiplicity = 1

 SCF Done:  E(RHF) =  -343.553693182     A.U. after   14 cycles
 Normal termination of Gaussian 16 at Wed Apr  9 03:29:06 2025.
 Gaussian 16:  ES64L-G16RevC.01  3-Jul-2019

 ----------------------------------------------------------------------
 #t hf aug-cc-pvdz iop(5/13=1,5/36=2,99/5=2) pseudo=read geom=check gue
 ss=(read,tcheck) scf=(maxcycle=1)
 ----------------------------------------------------------------------
 -----
 title
 -----
 Structure from the checkpoint file:  "Grambow2020_wb97xd3_006712_reverse_mol2.chk"
 Charge =  0 Multiplicity = 1

                         Standard orientation:
 ---------------------------------------------------------------------
 Center     Atomic      Atomic             Coordinates (Angstroms)
 Number     Number       Type             X           Y           Z
 ---------------------------------------------------------------------
      1          8           0       -2.299537   -0.210943    0.401330
      2          6           0       -1.519221    0.109098   -0.720597
      3          6           0       -0.062647   -0.069798   -0.441907
      4          8           0        0.338821   -1.176062    0.157963
      5          6           0        1.255059   -0.211669    0.941963
      6          6           0        2.255126    0.083118   -0.090080
      7          6           0        0.974320    0.828399   -0.448463
      8          1           0       -1.887871   -0.958161    0.847081
      9          1           0       -1.769625   -0.526372   -1.582579
     10          1           0       -1.721907    1.144956   -0.994515
     11          1           0       -1.533416    2.170610    1.496594
     12          1           0       -1.291497    2.873459    1.431964
     13          1           0        2.554843   -0.682980   -0.803854
     14          1           0        3.048627    0.743417    0.241278
     15          1           0        0.870751    1.896230   -0.555816
 ---------------------------------------------------------------------

 SCF Done:  E(RHF) =  -343.904957694     A.U. after    2 cycles

 The electronic state is 1-A.
 Alpha  occ. eigenvalues --  -20.59203 -20.56742 -11.36085 -11.32014 -11.31666
 Alpha  occ. eigenvalues --  -11.27975 -11.26212  -1.54157  -1.47267  -1.15371
 Alpha  occ. eigenvalues --   -1.04158  -0.92239  -0.81415  -0.77362  -0.73316
 Alpha  occ. eigenvalues --   -0.69491  -0.68801  -0.62591  -0.61696  -0.59006
 Alpha  occ. eigenvalues --   -0.58191  -0.56170  -0.53759  -0.50140  -0.46232
 Alpha  occ. eigenvalues --   -0.38856  -0.37838
 Alpha virt. eigenvalues --    0.03111   0.03586   0.04156   0.05228   0.06151
 Alpha virt. eigenvalues --    0.06411   0.07243   0.08491   0.09582   0.09838
 Alpha virt. eigenvalues --    0.11663   0.12296   0.12829   0.13984   0.14152

 Mulliken charges:
               1
     1  O   -1.097362
     2  C    0.527229
     3  C    0.993494
     4  O   -1.448654
     5  C    0.066278
     6  C    0.092664
     7  C    0.354497
     8  H    0.353608
     9  H    0.179654
    10  H    0.114291
    11  H    0.027972
    12  H   -0.016496
    13  H   -0.031401
    14  H    0.074694
    15  H   -0.190468
 Sum of Mulliken charges =  -0.00000

 Dipole moment (field-independent basis, Debye):
    X=              0.8859    Y=              0.9032    Z=             -3.0966  Tot=              3.3451

 Test job not archived.
 1\1\GINC-SE092\SP\RHF\Aug-CC-pVDZ\C5H8O2\OHZDE\09-Apr-2025\0\\#t hf au
 g-cc-pvdz iop(5/13=1,5/36=2,99/5=2) pseudo=read geom=check guess=(read
 ,tcheck) scf=(maxcycle=1)\\title\\0,1\O,0,1.95452066,0.4832045,1.25138
 736\C,0,1.654204,-0.09953702,0.01031443\C,0,0.29217921,0.29206321,-0.4
 617183\O,0,-0.06199726,1.56300545,-0.39764233\C,0,-1.40940621,0.983235
 38,0.08459833\C,0,-1.93525093,0.47297252,-1.18633264\C,0,-0.82237688,-
 0.4624957,-0.72724979\H,0,1.57443831,1.36742705,1.26499059\H,0,2.37162
 65,0.20666196,-0.76498213\H,0,1.71449067,-1.18307622,0.11719329\H,0,0.

 Normal termination of Gaussian 16 at Wed Apr  9 03:29:15 2025.
