 Gaussian 16, Revision C.01,

 ----------------------------------------------------------------------
 #t hf aug-cc-pvdz symm=none int=(grid=ultrafine) guess=(read,tcheck) s
 table=(opt,rrhf)
 ----------------------------------------------------------------------
 -----
 title
 -----
 Symbolic Z-matrix:
 Charge =  0 Multiplicity = 1

 SCF Done:  E(RHF) =  -305.708850430     A.U. after   15 cycles
 Normal termination of Gaussian 16 at Wed Apr  9 16:29:57 2025.
 Gaussian 16:  ES64L-G16RevC.01  3-Jul-2019

 ----------------------------------------------------------------------
 #t hf aug-cc-pvdz iop(5/13=1,5/36=2,99/5=2) pseudo=read geom=check gue
 ss=(read,tcheck) scf=(maxcycle=1)
 ----------------------------------------------------------------------
 -----
 title
 -----
 Structure from the checkpoint file:  "Grambow2020_wb97xd3_006134_forward_mol1.chk"
 Charge =  0 Multiplicity = 1

                         Standard orientation:
 ---------------------------------------------------------------------
 Center     Atomic      Atomic             Coordinates (Angstroms)
 Number     Number       Type             X           Y           Z
 ---------------------------------------------------------------------
      1          8           0       -2.255208   -0.440330    0.117549
      2          6           0       -1.312386    0.522409   -0.319215
      3          6           0       -0.026520    0.283945    0.439913
      4          6           0        0.732379   -0.986016    0.063512
      5          8           0        2.043768   -0.404853   -0.188096
      6          6           0        1.122759    1.172348   -0.015513
      7          1           0       -3.079002   -0.307710   -0.352558
      8          1           0       -1.670789    1.542564   -0.129707
      9          1           0       -1.115666    0.431468   -1.395301
     10          1           0       -0.236457    0.317879    1.512292
     11          1           0        0.842687   -1.715770    0.861920
     12          1           0        0.351899   -1.487918   -0.829943
     13          1           0        1.658755    1.664250    0.796975
     14          1           0        1.842701    0.360573   -0.911491
 ---------------------------------------------------------------------

 SCF Done:  E(RHF) =  -306.025711897     A.U. after    2 cycles

 The electronic state is 1-A.
 Alpha  occ. eigenvalues --  -20.57401 -20.55649 -11.29963 -11.29036 -11.27542
 Alpha  occ. eigenvalues --  -11.24507  -1.47167  -1.45873  -1.07920  -0.93300
 Alpha  occ. eigenvalues --   -0.90926  -0.76045  -0.72252  -0.70462  -0.65733
 Alpha  occ. eigenvalues --   -0.63162  -0.62394  -0.57242  -0.53147  -0.51872
 Alpha  occ. eigenvalues --   -0.49195  -0.46193  -0.44116  -0.34751
 Alpha virt. eigenvalues --    0.03298   0.03810   0.04265   0.04714   0.06492
 Alpha virt. eigenvalues --    0.06733   0.07230   0.07358   0.09712   0.12650
 Alpha virt. eigenvalues --    0.13033   0.13730   0.14758   0.15185   0.15567

 Mulliken charges:
               1
     1  O   -1.166894
     2  C    0.898480
     3  C   -0.717498
     4  C    0.846608
     5  O   -1.299587
     6  C   -0.056740
     7  H    0.308743
     8  H    0.117743
     9  H    0.180080
    10  H    0.042394
    11  H    0.062431
    12  H    0.044356
    13  H    0.024843
    14  H    0.715041
 Sum of Mulliken charges =  -0.00000

 Dipole moment (field-independent basis, Debye):
    X=             -1.8866    Y=              0.1412    Z=             -0.1971  Tot=              1.9021

 Test job not archived.
 1\1\GINC-SE232\SP\RHF\Aug-CC-pVDZ\C4H8O2\OHZDE\09-Apr-2025\0\\#t hf au
 g-cc-pvdz iop(5/13=1,5/36=2,99/5=2) pseudo=read geom=check guess=(read
 ,tcheck) scf=(maxcycle=1)\\title\\0,1\O,0,1.9213612,1.14867284,0.02378
 574\C,0,1.31379901,-0.11430904,0.22942577\C,0,-0.16042331,0.11878735,0
 .47216973\C,0,-0.96159622,0.57761768,-0.74356158\O,0,-2.03100481,-0.40
 997907,-0.70097131\C,0,-0.9684935,-1.16604606,0.58939118\H,0,2.8578483
 4,1.02390872,-0.13322495\H,0,1.75435968,-0.63028078,1.09242128\H,0,1.4
 3454258,-0.76468561,-0.64656595\H,0,-0.27652403,0.81260078,1.30904757\

 Normal termination of Gaussian 16 at Wed Apr  9 16:30:01 2025.
