 Gaussian 16, Revision C.01,

 ----------------------------------------------------------------------
 #t hf aug-cc-pvdz symm=none int=(grid=ultrafine) guess=(read,tcheck) s
 table=(opt,rrhf)
 ----------------------------------------------------------------------
 -----
 title
 -----
 Symbolic Z-matrix:
 Charge =  0 Multiplicity = 1

 SCF Done:  E(RHF) =  -263.865139064     A.U. after   15 cycles
 Normal termination of Gaussian 16 at Wed Apr  9 15:51:44 2025.
 Gaussian 16:  ES64L-G16RevC.01  3-Jul-2019

 ----------------------------------------------------------------------
 #t hf aug-cc-pvdz iop(5/13=1,5/36=2,99/5=2) pseudo=read geom=check gue
 ss=(read,tcheck) scf=(maxcycle=1)
 ----------------------------------------------------------------------
 -----
 title
 -----
 Structure from the checkpoint file:  "Grambow2020_b97d3_006855_forward_mol2.chk"
 Charge =  0 Multiplicity = 1

                         Standard orientation:
 ---------------------------------------------------------------------
 Center     Atomic      Atomic             Coordinates (Angstroms)
 Number     Number       Type             X           Y           Z
 ---------------------------------------------------------------------
      1          6           0       -2.185300   -0.024537    0.003263
      2          6           0       -0.681528    0.001894   -0.005250
      3          6           0        0.174729   -1.090997   -0.004187
      4          7           0        1.443100   -0.590655    0.002065
      5          7           0        1.488913    0.757827    0.002615
      6          6           0        0.197476    1.119097   -0.003092
      7          1           0       -2.609569    0.536256   -0.842564
      8          1           0       -2.560933   -1.055324   -0.064125
      9          1           0       -2.595727    0.413672    0.925682
     10          1           0       -0.030376   -2.156733   -0.002561
     11          1           0        2.310886   -1.111921    0.009026
     12          1           0       -0.070626    2.171103   -0.002625
 ---------------------------------------------------------------------

 SCF Done:  E(RHF) =  -264.138769355     A.U. after    2 cycles

 The electronic state is 1-A.
 Alpha  occ. eigenvalues --  -15.57594 -15.52779 -11.27873 -11.25609 -11.24163
 Alpha  occ. eigenvalues --  -11.23425  -1.36155  -1.10549  -1.07817  -0.95920
 Alpha  occ. eigenvalues --   -0.83786  -0.80615  -0.75576  -0.64002  -0.63959
 Alpha  occ. eigenvalues --   -0.59014  -0.57884  -0.57124  -0.54209  -0.49227
 Alpha  occ. eigenvalues --   -0.38749  -0.35369
 Alpha virt. eigenvalues --    0.03139   0.03891   0.04184   0.05434   0.05705
 Alpha virt. eigenvalues --    0.07675   0.09387   0.09581   0.12055   0.12289
 Alpha virt. eigenvalues --    0.12784   0.14334   0.14593   0.15454   0.15970

 Mulliken charges:
               1
     1  C   -0.584884
     2  C    0.696605
     3  C   -0.181054
     4  N    0.209983
     5  N   -0.011794
     6  C   -0.293796
     7  H    0.221400
     8  H    0.123607
     9  H    0.239203
    10  H   -0.263518
    11  H    0.042591
    12  H   -0.198343
 Sum of Mulliken charges =  -0.00000

 Dipole moment (field-independent basis, Debye):
    X=             -1.7262    Y=             -2.2671    Z=              0.0152  Tot=              2.8495

 Test job not archived.
 1\1\GINC-SE097\SP\RHF\Aug-CC-pVDZ\C4H6N2\OHZDE\09-Apr-2025\0\\#t hf au
 g-cc-pvdz iop(5/13=1,5/36=2,99/5=2) pseudo=read geom=check guess=(read
 ,tcheck) scf=(maxcycle=1)\\title\\0,1\C,0,-1.73066758,-0.31579454,0.04
 388286\C,0,-0.26721304,0.03040395,0.02045051\C,0,0.7890188,-0.81902952
 ,-0.2802604\N,0,1.9283136,-0.07954423,-0.16062257\N,0,1.70228984,1.201
 97452,0.19592456\C,0,0.36744938,1.27015981,0.30506227\H,0,-2.31711737,
 0.33924282,-0.61711509\H,0,-1.89540397,-1.35056117,-0.2882063\H,0,-2.1
 5508285,-0.22522384,1.05531906\H,0,0.80276169,-1.86820856,-0.55756632\

 Normal termination of Gaussian 16 at Wed Apr  9 15:51:48 2025.
