 Gaussian 16, Revision C.01,

 ----------------------------------------------------------------------
 #t hf aug-cc-pvdz symm=none int=(grid=ultrafine) guess=(read,tcheck) s
 table=(opt,rrhf)
 ----------------------------------------------------------------------
 -----
 title
 -----
 Symbolic Z-matrix:
 Charge =  0 Multiplicity = 1

 SCF Done:  E(RHF) =  -359.532222713     A.U. after   15 cycles
 Normal termination of Gaussian 16 at Wed Apr  9 03:46:30 2025.
 Gaussian 16:  ES64L-G16RevC.01  3-Jul-2019

 ----------------------------------------------------------------------
 #t hf aug-cc-pvdz iop(5/13=1,5/36=2,99/5=2) pseudo=read geom=check gue
 ss=(read,tcheck) scf=(maxcycle=1)
 ----------------------------------------------------------------------
 -----
 title
 -----
 Structure from the checkpoint file:  "Grambow2020_wb97xd3_007888_forward_mol1.chk"
 Charge =  0 Multiplicity = 1

                         Standard orientation:
 ---------------------------------------------------------------------
 Center     Atomic      Atomic             Coordinates (Angstroms)
 Number     Number       Type             X           Y           Z
 ---------------------------------------------------------------------
      1          6           0        0.506319    1.462963    0.019089
      2          6           0        0.376078   -0.016871   -0.166320
      3          7           0        1.358681   -0.830423   -0.098807
      4          8           0        2.536736   -0.192142    0.199994
      5          6           0       -0.896451   -0.731241   -0.539149
      6          6           0       -2.098228   -0.250151    0.736539
      7          8           0       -1.971818    0.181258   -0.587518
      8          1           0        1.194040    1.877181   -0.720315
      9          1           0       -0.460474    1.950929   -0.086749
     10          1           0        0.930171    1.685853    1.000349
     11          1           0        3.182130   -0.902981    0.187616
     12          1           0       -1.417817   -1.256404    0.686899
     13          1           0       -3.074601   -0.684119    0.943136
     14          1           0       -1.709866    0.441368    1.479953
 ---------------------------------------------------------------------

 SCF Done:  E(RHF) =  -359.893486369     A.U. after    2 cycles

 The electronic state is 1-A.
 Alpha  occ. eigenvalues --  -20.59786 -20.58421 -15.57563 -11.34044 -11.32388
 Alpha  occ. eigenvalues --  -11.28304 -11.24074  -1.53003  -1.52617  -1.19955
 Alpha  occ. eigenvalues --   -0.99918  -0.97068  -0.91911  -0.77544  -0.73324
 Alpha  occ. eigenvalues --   -0.71940  -0.66305  -0.63840  -0.63236  -0.60678
 Alpha  occ. eigenvalues --   -0.56496  -0.56030  -0.54597  -0.49758  -0.48077
 Alpha  occ. eigenvalues --   -0.41609  -0.35201
 Alpha virt. eigenvalues --    0.03169   0.03819   0.04359   0.04922   0.05797
 Alpha virt. eigenvalues --    0.06839   0.07271   0.08074   0.09766   0.11359
 Alpha virt. eigenvalues --    0.12703   0.12742   0.13979   0.14696   0.15428

 Mulliken charges:
               1
     1  C   -0.302031
     2  C   -1.025061
     3  N    1.653286
     4  O   -1.221427
     5  C    0.136266
     6  C    0.266377
     7  O   -1.118381
     8  H    0.203950
     9  H    0.098570
    10  H    0.291079
    11  H    0.293924
    12  H    0.603317
    13  H   -0.054796
    14  H    0.174927
 Sum of Mulliken charges =  -0.00000

 Dipole moment (field-independent basis, Debye):
    X=             -0.2322    Y=              1.3742    Z=              2.7923  Tot=              3.1208

 Test job not archived.
 1\1\GINC-SE454\SP\RHF\Aug-CC-pVDZ\C4H7N1O2\OHZDE\09-Apr-2025\0\\#t hf
 aug-cc-pvdz iop(5/13=1,5/36=2,99/5=2) pseudo=read geom=check guess=(re
 ad,tcheck) scf=(maxcycle=1)\\title\\0,1\C,0,-0.93711927,-1.03526053,0.
 21872052\C,0,-0.51270391,0.32508933,-0.24015611\N,0,-1.17034034,1.3933
 7906,0.00110164\O,0,-2.28801197,1.15028129,0.76018792\C,0,0.68325252,0
 .60798205,-1.11096848\C,0,2.09456603,-0.11491578,-0.22287703\O,0,1.406
 38078,-0.58051949,-1.34752464\H,0,-1.92147062,-1.27980028,-0.18440078\
 H,0,-0.22533065,-1.79105922,-0.10704899\H,0,-1.03022715,-1.05609217,1.

 Normal termination of Gaussian 16 at Wed Apr  9 03:46:34 2025.
