 Gaussian 16, Revision C.01,

 ----------------------------------------------------------------------
 #t hf aug-cc-pvdz symm=none int=(grid=ultrafine) guess=(read,tcheck) s
 table=(opt,rrhf)
 ----------------------------------------------------------------------
 -----
 title
 -----
 Symbolic Z-matrix:
 Charge =  0 Multiplicity = 1

 SCF Done:  E(RHF) =  -305.740971598     A.U. after   15 cycles
 Normal termination of Gaussian 16 at Wed Apr  9 03:06:24 2025.
 Gaussian 16:  ES64L-G16RevC.01  3-Jul-2019

 ----------------------------------------------------------------------
 #t hf aug-cc-pvdz iop(5/13=1,5/36=2,99/5=2) pseudo=read geom=check gue
 ss=(read,tcheck) scf=(maxcycle=1)
 ----------------------------------------------------------------------
 -----
 title
 -----
 Structure from the checkpoint file:  "Grambow2020_b97d3_006517_reverse_mol1.chk"
 Charge =  0 Multiplicity = 1

                         Standard orientation:
 ---------------------------------------------------------------------
 Center     Atomic      Atomic             Coordinates (Angstroms)
 Number     Number       Type             X           Y           Z
 ---------------------------------------------------------------------
      1          8           0        1.468211   -0.763222   -0.652556
      2          6           0        1.525973    0.239545    0.204721
      3          6           0        0.252783    0.883832    0.555566
      4          6           0       -0.820417    0.997476   -0.494955
      5          6           0       -1.635069   -0.266239   -0.179273
      6          8           0       -0.729498   -1.075367    0.606980
      7          1           0        0.103692   -1.239719   -0.005196
      8          1           0        2.187545    0.115481    1.095339
      9          1           0        1.916232    1.257872   -0.217843
     10          1           0        0.160809    1.441481    1.493457
     11          1           0       -1.396093    1.929494   -0.427551
     12          1           0       -0.337763    0.915997   -1.480240
     13          1           0       -1.989916   -0.801186   -1.073229
     14          1           0       -2.493828   -0.038399    0.463517
 ---------------------------------------------------------------------

 SCF Done:  E(RHF) =  -306.057758832     A.U. after    2 cycles

 The electronic state is 1-A.
 Alpha  occ. eigenvalues --  -20.54433 -20.44496 -11.38690 -11.31230 -11.30225
 Alpha  occ. eigenvalues --  -11.28016  -1.43974  -1.35553  -1.11815  -1.00213
 Alpha  occ. eigenvalues --   -0.88387  -0.79884  -0.72018  -0.69212  -0.66244
 Alpha  occ. eigenvalues --   -0.62885  -0.58886  -0.57023  -0.54860  -0.53918
 Alpha  occ. eigenvalues --   -0.49782  -0.44562  -0.37038  -0.35601
 Alpha virt. eigenvalues --    0.01936   0.02680   0.03480   0.04033   0.05236
 Alpha virt. eigenvalues --    0.06012   0.06421   0.07414   0.08782   0.11404
 Alpha virt. eigenvalues --    0.11867   0.13163   0.13432   0.13700   0.14318

 Mulliken charges:
               1
     1  O   -1.389998
     2  C    0.619001
     3  C    0.122467
     4  C   -0.392753
     5  C    0.659015
     6  O   -1.275585
     7  H    0.724474
     8  H    0.114736
     9  H    0.393606
    10  H   -0.046229
    11  H    0.141940
    12  H    0.194340
    13  H    0.092397
    14  H    0.042589
 Sum of Mulliken charges =  -0.00000

 Dipole moment (field-independent basis, Debye):
    X=             -2.9180    Y=              5.2737    Z=              1.5226  Tot=              6.2165

 Test job not archived.
 1\1\GINC-SE049\SP\RHF\Aug-CC-pVDZ\C4H8O2\OHZDE\09-Apr-2025\0\\#t hf au
 g-cc-pvdz iop(5/13=1,5/36=2,99/5=2) pseudo=read geom=check guess=(read
 ,tcheck) scf=(maxcycle=1)\\title\\0,1\O,0,-1.84634768,0.60722498,-0.47
 03585\C,0,-1.56083491,-0.58288082,0.0255583\C,0,-0.14430649,-0.8636089
 9,0.2973086\C,0,0.90248343,-0.27929178,-0.61432306\C,0,1.24339536,1.00
 249311,0.16097932\O,0,0.11923131,1.1766812,1.05476739\H,0,-0.72158835,
 1.25620618,0.436161\H,0,-2.22393788,-0.97425393,0.83388495\H,0,-1.5852
 5087,-1.47587194,-0.72930883\H,0,0.13207473,-1.63611193,1.02251531\H,0

 Normal termination of Gaussian 16 at Wed Apr  9 03:06:28 2025.
