 Gaussian 16, Revision C.01,

 ----------------------------------------------------------------------
 #t hf aug-cc-pvdz symm=none int=(grid=ultrafine) guess=(read,tcheck) s
 table=(opt,rrhf)
 ----------------------------------------------------------------------
 -----
 title
 -----
 Symbolic Z-matrix:
 Charge =  0 Multiplicity = 1

 SCF Done:  E(RHF) =  -337.433920762     A.U. after   15 cycles
 Normal termination of Gaussian 16 at Wed Apr  9 04:05:30 2025.
 Gaussian 16:  ES64L-G16RevC.01  3-Jul-2019

 ----------------------------------------------------------------------
 #t hf aug-cc-pvdz iop(5/13=1,5/36=2,99/5=2) pseudo=read geom=check gue
 ss=(read,tcheck) scf=(maxcycle=1)
 ----------------------------------------------------------------------
 -----
 title
 -----
 Structure from the checkpoint file:  "Grambow2020_wb97xd3_009189_reverse_mol2.chk"
 Charge =  0 Multiplicity = 1

                         Standard orientation:
 ---------------------------------------------------------------------
 Center     Atomic      Atomic             Coordinates (Angstroms)
 Number     Number       Type             X           Y           Z
 ---------------------------------------------------------------------
      1          8           0       -1.865589   -0.360596   -0.167549
      2          6           0       -0.515379   -0.401155   -0.315998
      3          6           0       -1.084927    0.566425    0.669428
      4          6           0       -0.068532    1.018512   -0.359591
      5          7           0        1.286580    0.796738    0.024515
      6          6           0        1.521531   -0.550072    0.120209
      7          7           0        0.499340   -1.312746   -0.074469
      8          1           0       -0.931965    0.318274    1.707957
      9          1           0       -0.270014    1.796333   -1.092148
     10          1           0        2.002991    1.497289    0.012498
     11          1           0        2.506094   -0.917334    0.377471
 ---------------------------------------------------------------------

 SCF Done:  E(RHF) =  -337.770711975     A.U. after    2 cycles

 The electronic state is 1-A.
 Alpha  occ. eigenvalues --  -20.58756 -15.56273 -15.50948 -11.34153 -11.33834
 Alpha  occ. eigenvalues --  -11.32268 -11.28292  -1.53498  -1.35258  -1.20341
 Alpha  occ. eigenvalues --   -1.09380  -0.91462  -0.85797  -0.83345  -0.79205
 Alpha  occ. eigenvalues --   -0.70014  -0.67916  -0.63911  -0.61781  -0.58143
 Alpha  occ. eigenvalues --   -0.56409  -0.50601  -0.47713  -0.44155  -0.32437
 Alpha virt. eigenvalues --    0.02219   0.03987   0.04604   0.05037   0.07474
 Alpha virt. eigenvalues --    0.08177   0.09211   0.09864   0.11070   0.12700
 Alpha virt. eigenvalues --    0.13215   0.14004   0.14615   0.14718   0.15249

 Mulliken charges:
               1
     1  O   -1.197837
     2  C    0.162687
     3  C    0.472695
     4  C   -0.251318
     5  N    0.592176
     6  C   -0.438665
     7  N    0.864775
     8  H   -0.010544
     9  H   -0.155628
    10  H    0.023738
    11  H   -0.062079
 Sum of Mulliken charges =  -0.00000

 Dipole moment (field-independent basis, Debye):
    X=              4.4114    Y=              3.1456    Z=              0.3507  Tot=              5.4294

 Test job not archived.
 1\1\GINC-SE029\SP\RHF\Aug-CC-pVDZ\C4H4N2O1\OHZDE\09-Apr-2025\0\\#t hf
 aug-cc-pvdz iop(5/13=1,5/36=2,99/5=2) pseudo=read geom=check guess=(re
 ad,tcheck) scf=(maxcycle=1)\\title\\0,1\O,0,2.15268177,-0.02452747,0.6
 2718928\C,0,0.85563116,-0.41936808,0.53494341\C,0,1.31502965,0.6951633
 3,-0.34734453\C,0,0.05252726,0.83321169,0.47930771\N,0,-1.10894677,0.2
 7991571,-0.13542174\C,0,-0.96306006,-1.07773698,-0.25268955\N,0,0.1728
 62,-1.55471469,0.13021889\H,0,1.41575788,0.45047022,-1.39304827\H,0,-0
 .08733358,1.61186491,1.22521415\H,0,-1.97436827,0.76950275,-0.25996133

 Normal termination of Gaussian 16 at Wed Apr  9 04:05:34 2025.
