 Gaussian 16, Revision C.01,

 ----------------------------------------------------------------------
 #t hf aug-cc-pvdz symm=none int=(grid=ultrafine) guess=(read,tcheck) s
 table=(opt,rrhf)
 ----------------------------------------------------------------------
 -----
 title
 -----
 Symbolic Z-matrix:
 Charge =  0 Multiplicity = 1

 SCF Done:  E(RHF) =  -286.799254459     A.U. after   16 cycles
 Normal termination of Gaussian 16 at Wed Apr  9 19:07:05 2025.
 Gaussian 16:  ES64L-G16RevC.01  3-Jul-2019

 ----------------------------------------------------------------------
 #t hf aug-cc-pvdz iop(5/13=1,5/36=2,99/5=2) pseudo=read geom=check gue
 ss=(read,tcheck) scf=(maxcycle=1)
 ----------------------------------------------------------------------
 -----
 title
 -----
 Structure from the checkpoint file:  "Grambow2020_wb97xd3_008589_reverse_mol2.chk"
 Charge =  0 Multiplicity = 1

                         Standard orientation:
 ---------------------------------------------------------------------
 Center     Atomic      Atomic             Coordinates (Angstroms)
 Number     Number       Type             X           Y           Z
 ---------------------------------------------------------------------
      1          6           0       -2.531824   -0.505290    0.153197
      2          6           0       -1.071968   -0.254824   -0.038163
      3          6           0       -0.031068   -1.078652   -0.292836
      4          6           0        1.159052   -0.148260   -0.387116
      5          6           0        2.417326   -0.559419    0.372825
      6          6           0        0.652266    1.217901   -0.084928
      7          7           0       -0.621271    1.115058    0.084156
      8          1           0       -3.147862    0.000922   -0.597205
      9          1           0       -2.699782   -1.575672    0.055789
     10          1           0       -2.885022   -0.196995    1.142810
     11          1           0        1.399961   -0.111970   -1.465069
     12          1           0        2.214466   -0.618781    1.442977
     13          1           0        3.243908    0.137105    0.212488
     14          1           0        2.719474   -1.550650    0.039000
     15          1           0        1.161467    2.171929   -0.027766
     16          1           0       -1.220416    1.909971    0.270017
 ---------------------------------------------------------------------

 SCF Done:  E(RHF) =  -287.102901662     A.U. after    2 cycles

 The electronic state is 1-A.
 Alpha  occ. eigenvalues --  -15.60417 -11.33359 -11.24083 -11.23029 -11.22750
 Alpha  occ. eigenvalues --  -11.22028 -11.15984  -1.33639  -1.07787  -1.03933
 Alpha  occ. eigenvalues --   -0.94849  -0.92098  -0.81781  -0.77226  -0.74600
 Alpha  occ. eigenvalues --   -0.65035  -0.60786  -0.60296  -0.57452  -0.55401
 Alpha  occ. eigenvalues --   -0.53864  -0.52366  -0.50605  -0.46703  -0.30655
 Alpha  occ. eigenvalues --   -0.30069
 Alpha virt. eigenvalues --    0.01653   0.03224   0.04116   0.04568   0.05318
 Alpha virt. eigenvalues --    0.05543   0.06156   0.06818   0.06989   0.08837
 Alpha virt. eigenvalues --    0.10856   0.11437   0.12139   0.12794   0.13462

 Mulliken charges:
               1
     1  C   -0.397744
     2  C   -0.055336
     3  C   -0.612804
     4  C   -0.786356
     5  C   -0.171517
     6  C   -0.329366
     7  N    0.952860
     8  H    0.179179
     9  H    0.187410
    10  H    0.180714
    11  H    0.336710
    12  H    0.240991
    13  H    0.162221
    14  H    0.209314
    15  H   -0.130508
    16  H    0.034233
 Sum of Mulliken charges =  -0.00000

 Dipole moment (field-independent basis, Debye):
    X=              0.7856    Y=              6.5145    Z=              0.6545  Tot=              6.5942

 Test job not archived.
 1\1\GINC-SE232\SP\RHF\Aug-CC-pVDZ\C6H9N1\OHZDE\09-Apr-2025\0\\#t hf au
 g-cc-pvdz iop(5/13=1,5/36=2,99/5=2) pseudo=read geom=check guess=(read
 ,tcheck) scf=(maxcycle=1)\\title\\0,1\C,0,2.57973005,-0.15354902,-0.35
 251735\C,0,1.11719014,-0.15079379,-0.05003029\C,0,0.14254636,-1.065372
 97,-0.25162156\C,0,-1.09806798,-0.41146227,0.31774881\C,0,-2.36115557,
 -0.46774705,-0.53738658\C,0,-0.6920797,0.94937969,0.76252874\N,0,0.576
 45312,1.04680303,0.55662779\H,0,3.19611421,-0.06067682,0.54765067\H,0,
 2.81867528,-1.10444206,-0.82381531\H,0,2.86782407,0.64671633,-1.042231

 Normal termination of Gaussian 16 at Wed Apr  9 19:07:11 2025.
