 Gaussian 16, Revision C.01,

 ----------------------------------------------------------------------
 #t hf aug-cc-pvdz symm=none int=(grid=ultrafine) guess=(read,tcheck) s
 table=(opt,rrhf)
 ----------------------------------------------------------------------
 -----
 title
 -----
 Symbolic Z-matrix:
 Charge =  0 Multiplicity = 1

 SCF Done:  E(RHF) =  -299.475917369     A.U. after   17 cycles
 Normal termination of Gaussian 16 at Wed Apr  9 16:33:42 2025.
 Gaussian 16:  ES64L-G16RevC.01  3-Jul-2019

 ----------------------------------------------------------------------
 #t hf aug-cc-pvdz iop(5/13=1,5/36=2,99/5=2) pseudo=read geom=check gue
 ss=(read,tcheck) scf=(maxcycle=1)
 ----------------------------------------------------------------------
 -----
 title
 -----
 Structure from the checkpoint file:  "Grambow2020_wb97xd3_006145_reverse_mol1.chk"
 Charge =  0 Multiplicity = 1

                         Standard orientation:
 ---------------------------------------------------------------------
 Center     Atomic      Atomic             Coordinates (Angstroms)
 Number     Number       Type             X           Y           Z
 ---------------------------------------------------------------------
      1          7           0        1.589908    0.156220    0.482613
      2          6           0        0.650597    0.270394   -0.426803
      3          6           0       -0.493531    1.156368   -0.373139
      4          6           0       -1.312292    0.292002    0.283036
      5          7           0       -0.765223   -0.979656    0.417852
      6          8           0        0.196266   -0.972087   -0.692796
      7          1           0        0.566630   -0.554389    1.080160
      8          1           0        1.803647    1.044610    0.926167
      9          1           0       -0.547433    2.226264   -0.469011
     10          1           0       -2.234405    0.511676    0.803232
 ---------------------------------------------------------------------

 SCF Done:  E(RHF) =  -299.772272292     A.U. after    2 cycles

 The electronic state is 1-A.
 Alpha  occ. eigenvalues --  -20.59259 -15.55982 -15.54414 -11.39686 -11.31216
 Alpha  occ. eigenvalues --  -11.26533  -1.56045  -1.24894  -1.18018  -1.04943
 Alpha  occ. eigenvalues --   -0.84657  -0.82810  -0.76856  -0.73160  -0.66182
 Alpha  occ. eigenvalues --   -0.62508  -0.57559  -0.55613  -0.54668  -0.48784
 Alpha  occ. eigenvalues --   -0.44609  -0.37242
 Alpha virt. eigenvalues --    0.02177   0.03513   0.04178   0.05023   0.07371
 Alpha virt. eigenvalues --    0.07825   0.08684   0.10419   0.10806   0.11648
 Alpha virt. eigenvalues --    0.13286   0.13693   0.15064   0.15397   0.16160

 Mulliken charges:
               1
     1  N    0.454803
     2  C   -0.665010
     3  C    0.776238
     4  C   -0.574430
     5  N    0.519600
     6  O   -1.356401
     7  H    0.769699
     8  H    0.282239
     9  H   -0.111314
    10  H   -0.095422
 Sum of Mulliken charges =  -0.00000

 Dipole moment (field-independent basis, Debye):
    X=             -0.3079    Y=              4.7070    Z=              0.9004  Tot=              4.8022

 Test job not archived.
 1\1\GINC-SE174\SP\RHF\Aug-CC-pVDZ\C3H4N2O1\OHZDE\09-Apr-2025\0\\#t hf
 aug-cc-pvdz iop(5/13=1,5/36=2,99/5=2) pseudo=read geom=check guess=(re
 ad,tcheck) scf=(maxcycle=1)\\title\\0,1\N,0,1.65409483,-0.20828571,-0.
 07654096\C,0,0.49699351,-0.46494525,-0.64011846\C,0,-0.6016639,0.46346
 705,-0.80703865\C,0,-1.1908125,0.20361555,0.3902274\N,0,-0.60660257,-0
 .86385045,1.06386647\O,0,0.00746968,-1.58134661,-0.06137557\H,0,0.8496
 4549,-0.34226752,1.03882197\H,0,1.96792855,0.73999687,-0.26074315\H,0,
 -0.69804647,1.31426497,-1.45790522\H,0,-1.93523262,0.79197409,0.908710

 Normal termination of Gaussian 16 at Wed Apr  9 16:33:45 2025.
