 Gaussian 16, Revision C.01,

 ----------------------------------------------------------------------
 #t hf aug-cc-pvdz symm=none int=(grid=ultrafine) guess=(read,tcheck) s
 table=(opt,rrhf)
 ----------------------------------------------------------------------
 -----
 title
 -----
 Symbolic Z-matrix:
 Charge =  0 Multiplicity = 1

 SCF Done:  E(RHF) =  -301.599517191     A.U. after   16 cycles
 Normal termination of Gaussian 16 at Wed Apr  9 19:11:55 2025.
 Gaussian 16:  ES64L-G16RevC.01  3-Jul-2019

 ----------------------------------------------------------------------
 #t hf aug-cc-pvdz iop(5/13=1,5/36=2,99/5=2) pseudo=read geom=check gue
 ss=(read,tcheck) scf=(maxcycle=1)
 ----------------------------------------------------------------------
 -----
 title
 -----
 Structure from the checkpoint file:  "Grambow2020_wb97xd3_008867_reverse_mol2.chk"
 Charge =  0 Multiplicity = 1

                         Standard orientation:
 ---------------------------------------------------------------------
 Center     Atomic      Atomic             Coordinates (Angstroms)
 Number     Number       Type             X           Y           Z
 ---------------------------------------------------------------------
      1          7           0       -2.309129    1.104767    0.415550
      2          6           0       -1.717264    0.230041   -0.030046
      3          6           0        0.886599   -0.537099    1.165794
      4          6           0        0.450195   -1.010459   -0.155579
      5          6           0       -0.984746   -0.873343   -0.643433
      6          6           0        1.894195    1.085208   -0.533893
      7          7           0        1.249346    0.169698    0.107820
      8          1           0        1.507497   -0.915053    1.960815
      9          1           0        0.999508   -1.774527   -0.714089
     10          1           0       -1.012471   -0.741793   -1.728450
     11          1           0       -1.511843   -1.804533   -0.421716
     12          1           0        1.705867    1.207310   -1.588852
     13          1           0        2.556047    1.741261    0.011650
 ---------------------------------------------------------------------

 SCF Done:  E(RHF) =  -301.909426719     A.U. after    2 cycles

 The electronic state is 1-A.
 Alpha  occ. eigenvalues --  -15.62074 -15.50456 -11.31987 -11.29723 -11.28751
 Alpha  occ. eigenvalues --  -11.27448 -11.25113  -1.37539  -1.23032  -1.12083
 Alpha  occ. eigenvalues --   -1.05877  -0.87477  -0.80219  -0.75513  -0.70016
 Alpha  occ. eigenvalues --   -0.69012  -0.66500  -0.64894  -0.59624  -0.55504
 Alpha  occ. eigenvalues --   -0.53917  -0.50890  -0.48891  -0.48178  -0.29145
 Alpha virt. eigenvalues --    0.02672   0.03755   0.03932   0.04363   0.05094
 Alpha virt. eigenvalues --    0.05831   0.06858   0.08821   0.10171   0.11067
 Alpha virt. eigenvalues --    0.11635   0.12346   0.13304   0.14286   0.14771

 Mulliken charges:
               1
     1  N    0.931096
     2  C   -1.428887
     3  C   -0.215777
     4  C   -0.403852
     5  C   -0.131597
     6  C   -0.027910
     7  N    1.265856
     8  H   -0.249105
     9  H   -0.251834
    10  H    0.283041
    11  H    0.277236
    12  H   -0.054013
    13  H    0.005747
 Sum of Mulliken charges =  -0.00000

 Dipole moment (field-independent basis, Debye):
    X=              3.5307    Y=             -3.4515    Z=             -2.9089  Tot=              5.7307

 Test job not archived.
 1\1\GINC-SE168\SP\RHF\Aug-CC-pVDZ\C5H6N2\OHZDE\09-Apr-2025\0\\#t hf au
 g-cc-pvdz iop(5/13=1,5/36=2,99/5=2) pseudo=read geom=check guess=(read
 ,tcheck) scf=(maxcycle=1)\\title\\0,1\N,0,1.46532507,-0.76996447,2.446
 31426\C,0,0.9002385,-1.07456906,1.49663165\C,0,1.02625609,0.66316136,-
 0.90400413\C,0,0.03408871,-0.41080359,-0.75318518\C,0,0.1461439,-1.486
 93167,0.31697817\C,0,-1.06942251,1.76750088,0.05757389\N,0,-0.14652222
 ,0.97764399,-0.37850585\H,0,1.53926486,1.13800906,-1.72361559\H,0,-0.6
 2699697,-0.71554015,-1.57024124\H,0,-0.8456406,-1.81341087,0.64118388\

 Normal termination of Gaussian 16 at Wed Apr  9 19:11:59 2025.
