 Gaussian 16, Revision C.01,

 ----------------------------------------------------------------------
 #t hf aug-cc-pvdz symm=none int=(grid=ultrafine) guess=(read,tcheck) s
 table=(opt,rrhf)
 ----------------------------------------------------------------------
 -----
 title
 -----
 Symbolic Z-matrix:
 Charge =  0 Multiplicity = 1

 SCF Done:  E(RHF) =  -322.727736122     A.U. after   15 cycles
 Normal termination of Gaussian 16 at Wed Apr  9 03:33:21 2025.
 Gaussian 16:  ES64L-G16RevC.01  3-Jul-2019

 ----------------------------------------------------------------------
 #t hf aug-cc-pvdz iop(5/13=1,5/36=2,99/5=2) pseudo=read geom=check gue
 ss=(read,tcheck) scf=(maxcycle=1)
 ----------------------------------------------------------------------
 -----
 title
 -----
 Structure from the checkpoint file:  "Grambow2020_wb97xd3_007012_reverse_mol2.chk"
 Charge =  0 Multiplicity = 1

                         Standard orientation:
 ---------------------------------------------------------------------
 Center     Atomic      Atomic             Coordinates (Angstroms)
 Number     Number       Type             X           Y           Z
 ---------------------------------------------------------------------
      1          6           0       -1.446595   -0.917961    0.928282
      2          6           0       -0.120480    1.190757    0.270182
      3          6           0        1.203674    1.066878    0.285126
      4          6           0        1.944247   -0.163168   -0.034667
      5          7           0        1.363288   -1.208831   -0.451449
      6          6           0       -1.133979    0.139824   -0.093531
      7          8           0       -1.739967    0.253377   -1.128456
      8          1           0       -2.066808   -0.465908    1.708396
      9          1           0       -0.537761   -1.298360    1.390895
     10          1           0       -2.001671   -1.726911    0.457731
     11          1           0       -0.558410    2.162162    0.481522
     12          1           0        1.805990    1.935956    0.527442
     13          1           0        3.029034   -0.108246    0.106575
     14          1           0        2.025140   -1.961875   -0.617118
 ---------------------------------------------------------------------

 SCF Done:  E(RHF) =  -323.057138941     A.U. after    2 cycles

 The electronic state is 1-A.
 Alpha  occ. eigenvalues --  -20.52988 -15.50786 -11.34089 -11.30668 -11.26956
 Alpha  occ. eigenvalues --  -11.26101 -11.23540  -1.46926  -1.23475  -1.08968
 Alpha  occ. eigenvalues --   -1.01038  -0.91617  -0.81573  -0.74786  -0.72214
 Alpha  occ. eigenvalues --   -0.67195  -0.64024  -0.62296  -0.59371  -0.58845
 Alpha  occ. eigenvalues --   -0.54905  -0.51892  -0.49244  -0.46793  -0.41104
 Alpha  occ. eigenvalues --   -0.38913
 Alpha virt. eigenvalues --    0.02790   0.03581   0.04001   0.05025   0.05340
 Alpha virt. eigenvalues --    0.05662   0.06178   0.07883   0.10497   0.11470
 Alpha virt. eigenvalues --    0.12418   0.12804   0.13600   0.13773   0.14306

 Mulliken charges:
               1
     1  C   -0.512564
     2  C    0.657134
     3  C    0.372543
     4  C   -0.858610
     5  N    0.669979
     6  C    0.792965
     7  O   -1.367088
     8  H    0.265743
     9  H    0.228177
    10  H    0.156188
    11  H   -0.159734
    12  H   -0.173077
    13  H   -0.196942
    14  H    0.125286
 Sum of Mulliken charges =  -0.00000

 Dipole moment (field-independent basis, Debye):
    X=              3.2375    Y=              0.6633    Z=              3.1228  Tot=              4.5468

 Test job not archived.
 1\1\GINC-SE069\SP\RHF\Aug-CC-pVDZ\C5H7N1O1\OHZDE\09-Apr-2025\0\\#t hf
 aug-cc-pvdz iop(5/13=1,5/36=2,99/5=2) pseudo=read geom=check guess=(re
 ad,tcheck) scf=(maxcycle=1)\\title\\0,1\C,0,-1.69194328,-0.75512034,0.
 41298631\C,0,-0.19901867,0.84617719,-0.9454641\C,0,0.9469259,1.1953013
 8,-0.36764404\C,0,1.74070109,0.33968385,0.52766038\N,0,1.43144894,-0.8
 67942,0.75268561\C,0,-0.91131851,-0.47506559,-0.84118027\O,0,-0.931408
 12,-1.1995957,-1.8033844\H,0,-2.6118062,-0.1631258,0.38154547\H,0,-1.1
 2919267,-0.46666223,1.29887368\H,0,-1.95065096,-1.81122924,0.45339816\

 Normal termination of Gaussian 16 at Wed Apr  9 03:33:26 2025.
