 Gaussian 16, Revision C.01,

 ----------------------------------------------------------------------
 #t hf aug-cc-pvdz symm=none int=(grid=ultrafine) guess=(read,tcheck) s
 table=(opt,rrhf)
 ----------------------------------------------------------------------
 -----
 title
 -----
 Symbolic Z-matrix:
 Charge =  0 Multiplicity = 1

 SCF Done:  E(RHF) =  -338.591880859     A.U. after   17 cycles
 Normal termination of Gaussian 16 at Wed Apr  9 19:05:52 2025.
 Gaussian 16:  ES64L-G16RevC.01  3-Jul-2019

 ----------------------------------------------------------------------
 #t hf aug-cc-pvdz iop(5/13=1,5/36=2,99/5=2) pseudo=read geom=check gue
 ss=(read,tcheck) scf=(maxcycle=1)
 ----------------------------------------------------------------------
 -----
 title
 -----
 Structure from the checkpoint file:  "Grambow2020_wb97xd3_008548_forward_mol1.chk"
 Charge =  0 Multiplicity = 1

                         Standard orientation:
 ---------------------------------------------------------------------
 Center     Atomic      Atomic             Coordinates (Angstroms)
 Number     Number       Type             X           Y           Z
 ---------------------------------------------------------------------
      1          6           0       -2.548638   -0.386572   -0.085436
      2          6           0       -1.085566   -0.111777   -0.002163
      3          7           0       -0.652344    1.121996   -0.047889
      4          8           0        0.676569    1.134628    0.010719
      5          6           0        1.093620   -0.230747    0.209199
      6          7           0        2.416638   -0.507693   -0.144616
      7          6           0       -0.036809   -1.107804    0.092549
      8          1           0       -3.108162    0.538924   -0.214899
      9          1           0       -2.756215   -1.052437   -0.923895
     10          1           0       -2.891316   -0.889003    0.820058
     11          1           0        3.052835    0.241097    0.081257
     12          1           0        2.507403   -0.782461   -1.109717
     13          1           0        0.897198   -0.411865    1.324082
 ---------------------------------------------------------------------

 SCF Done:  E(RHF) =  -338.934159181     A.U. after    2 cycles

 The electronic state is 1-A.
 Alpha  occ. eigenvalues --  -20.62475 -15.60447 -15.52265 -11.35109 -11.28638
 Alpha  occ. eigenvalues --  -11.27431 -11.24456  -1.58696  -1.23922  -1.19504
 Alpha  occ. eigenvalues --   -1.07051  -0.99336  -0.84282  -0.82379  -0.75072
 Alpha  occ. eigenvalues --   -0.72237  -0.69072  -0.64706  -0.59380  -0.57148
 Alpha  occ. eigenvalues --   -0.56986  -0.55831  -0.50241  -0.47205  -0.41601
 Alpha  occ. eigenvalues --   -0.39822
 Alpha virt. eigenvalues --    0.01708   0.04084   0.04165   0.04848   0.05837
 Alpha virt. eigenvalues --    0.06121   0.06244   0.09363   0.10409   0.11533
 Alpha virt. eigenvalues --    0.12416   0.13041   0.13828   0.15111   0.15365

 Mulliken charges:
               1
     1  C   -0.241377
     2  C   -0.755041
     3  N    1.414205
     4  O   -1.530372
     5  C   -0.199608
     6  N    0.489579
     7  C   -0.742894
     8  H    0.158372
     9  H    0.239663
    10  H    0.253762
    11  H    0.182997
    12  H    0.257286
    13  H    0.473429
 Sum of Mulliken charges =  -0.00000

 Dipole moment (field-independent basis, Debye):
    X=              0.6263    Y=              0.0826    Z=             -0.3591  Tot=              0.7266

 Test job not archived.
 1\1\GINC-SE159\SP\RHF\Aug-CC-pVDZ\C4H6N2O1\OHZDE\09-Apr-2025\0\\#t hf
 aug-cc-pvdz iop(5/13=1,5/36=2,99/5=2) pseudo=read geom=check guess=(re
 ad,tcheck) scf=(maxcycle=1)\\title\\0,1\C,0,-2.3687065,-0.01124782,-0.
 0075484\C,0,-0.88545646,0.01291335,-0.15725475\N,0,-0.34919074,-0.1367
 1498,-1.34131415\O,0,0.97706407,-0.11393227,-1.24064666\C,0,1.28108116
 ,0.17566245,0.13822308\N,0,2.5630623,-0.19074843,0.55598732\C,0,0.0760
 4282,0.15481673,0.9180655\H,0,-2.85026905,-0.19526214,-0.96703081\H,0,
 -2.66012649,-0.79157943,0.69646644\H,0,-2.72374823,0.93808633,0.395557

 Normal termination of Gaussian 16 at Wed Apr  9 19:05:56 2025.
