 Gaussian 16, Revision C.01,

 ----------------------------------------------------------------------
 #t hf aug-cc-pvdz symm=none int=(grid=ultrafine) guess=(read,tcheck) s
 table=(opt,rrhf)
 ----------------------------------------------------------------------
 -----
 title
 -----
 Symbolic Z-matrix:
 Charge =  0 Multiplicity = 1

 SCF Done:  E(RHF) =  -321.353161170     A.U. after   19 cycles
 Normal termination of Gaussian 16 at Wed Apr  9 19:19:49 2025.
 Gaussian 16:  ES64L-G16RevC.01  3-Jul-2019

 ----------------------------------------------------------------------
 #t hf aug-cc-pvdz iop(5/13=1,5/36=2,99/5=2) pseudo=read geom=check gue
 ss=(read,tcheck) scf=(maxcycle=1)
 ----------------------------------------------------------------------
 -----
 title
 -----
 Structure from the checkpoint file:  "Grambow2020_wb97xd3_009374_reverse_mol1.chk"
 Charge =  0 Multiplicity = 1

                         Standard orientation:
 ---------------------------------------------------------------------
 Center     Atomic      Atomic             Coordinates (Angstroms)
 Number     Number       Type             X           Y           Z
 ---------------------------------------------------------------------
      1          8           0        2.085651   -0.373308   -0.377299
      2          6           0        0.992743   -0.169740   -0.057992
      3          6           0        0.057006   -0.695648    1.022254
      4          6           0       -1.259070   -0.238463    0.356597
      5          6           0       -1.266168   -0.715188   -1.020820
      6          6           0       -0.814960    1.244345    0.283012
      7          7           0        0.244513    1.504372   -0.198566
      8          1           0        0.156423   -1.780539    1.081438
      9          1           0        0.254124   -0.235339    1.999299
     10          1           0       -2.139189   -0.505158    0.943267
     11          1           0       -0.977250   -0.059716   -1.825554
     12          1           0       -1.948214   -1.515228   -1.288407
 ---------------------------------------------------------------------

 SCF Done:  E(RHF) =  -321.671925706     A.U. after    2 cycles

 The electronic state is 1-A.
 Alpha  occ. eigenvalues --  -20.61191 -15.53932 -11.43128 -11.31907 -11.31231
 Alpha  occ. eigenvalues --  -11.31040 -11.25507  -1.56405  -1.29236  -1.13246
 Alpha  occ. eigenvalues --   -0.99476  -0.87034  -0.79649  -0.74732  -0.72257
 Alpha  occ. eigenvalues --   -0.70029  -0.65959  -0.61918  -0.59513  -0.56826
 Alpha  occ. eigenvalues --   -0.56042  -0.54708  -0.50991  -0.48600  -0.28015
 Alpha virt. eigenvalues --   -0.01703   0.02732   0.03867   0.04213   0.04896
 Alpha virt. eigenvalues --    0.06600   0.07913   0.09486   0.10061   0.10484
 Alpha virt. eigenvalues --    0.10640   0.12219   0.12633   0.13359   0.13802

 Mulliken charges:
               1
     1  O   -1.103740
     2  C    1.108464
     3  C   -0.086251
     4  C    0.196948
     5  C    0.039776
     6  C   -1.061270
     7  N    0.677952
     8  H    0.170746
     9  H    0.201156
    10  H   -0.031866
    11  H    0.021730
    12  H   -0.133646
 Sum of Mulliken charges =   0.00000

 Dipole moment (field-independent basis, Debye):
    X=             -2.5111    Y=             -2.8013    Z=              2.2994  Tot=              4.4091

 Test job not archived.
 1\1\GINC-SE037\SP\RHF\Aug-CC-pVDZ\C5H5N1O1\OHZDE\09-Apr-2025\0\\#t hf
 aug-cc-pvdz iop(5/13=1,5/36=2,99/5=2) pseudo=read geom=check guess=(re
 ad,tcheck) scf=(maxcycle=1)\\title\\0,1\O,0,-1.62171667,0.45506941,1.8
 2600756\C,0,-0.7530037,0.38386798,1.06567057\C,0,-0.4477739,0.98512372
 ,-0.29977413\C,0,0.62313947,-0.04716676,-0.71413484\C,0,0.07064998,-1.
 38259378,-0.52443497\C,0,1.4999731,0.22325979,0.53462432\N,0,0.9918753
 2,0.18837296,1.61287908\H,0,-1.34756026,0.94420517,-0.91547269\H,0,-0.
 07772709,2.01596757,-0.22373234\H,0,1.03065976,0.14844367,-1.70689916\

 Normal termination of Gaussian 16 at Wed Apr  9 19:19:54 2025.
