 Gaussian 16, Revision C.01,

 ----------------------------------------------------------------------
 #t hf aug-cc-pvdz symm=none int=(grid=ultrafine) guess=(read,tcheck) s
 table=(opt,rrhf)
 ----------------------------------------------------------------------
 -----
 title
 -----
 Symbolic Z-matrix:
 Charge =  0 Multiplicity = 1

 SCF Done:  E(RHF) =  -306.542780477     A.U. after   15 cycles
 Normal termination of Gaussian 16 at Wed Apr  9 03:51:43 2025.
 Gaussian 16:  ES64L-G16RevC.01  3-Jul-2019

 ----------------------------------------------------------------------
 #t hf aug-cc-pvdz iop(5/13=1,5/36=2,99/5=2) pseudo=read geom=check gue
 ss=(read,tcheck) scf=(maxcycle=1)
 ----------------------------------------------------------------------
 -----
 title
 -----
 Structure from the checkpoint file:  "Grambow2020_wb97xd3_008172_reverse_mol1.chk"
 Charge =  0 Multiplicity = 1

                         Standard orientation:
 ---------------------------------------------------------------------
 Center     Atomic      Atomic             Coordinates (Angstroms)
 Number     Number       Type             X           Y           Z
 ---------------------------------------------------------------------
      1          6           0        1.643760   -0.106724   -0.159704
      2          6           0        0.601759    0.551734    0.755249
      3          8           0       -0.165384    1.379450   -0.133805
      4          6           0       -0.959999    0.508702   -0.838547
      5          6           0       -1.573867   -0.416336    0.227786
      6          6           0       -0.210832   -0.784452    0.724075
      7          6           0        0.500818   -0.962645   -0.639942
      8          1           0        2.208761    0.519186   -0.849828
      9          1           0        2.316454   -0.720823    0.446547
     10          1           0        0.870115    1.080580    1.666800
     11          1           0       -0.291698   -0.164331   -1.590225
     12          1           0       -2.235210    0.127590    0.903175
     13          1           0       -2.106113   -1.253543   -0.223396
     14          1           0       -0.005797   -1.490383    1.531094
     15          1           0        0.556735   -1.875554   -1.227221
 ---------------------------------------------------------------------

 SCF Done:  E(RHF) =  -306.863205097     A.U. after    2 cycles

 The electronic state is 1-A.
 Alpha  occ. eigenvalues --  -20.55438 -11.29795 -11.28507 -11.28397 -11.25637
 Alpha  occ. eigenvalues --  -11.24897 -11.23312  -1.49484  -1.17052  -1.04513
 Alpha  occ. eigenvalues --   -0.93618  -0.86103  -0.78990  -0.77518  -0.70184
 Alpha  occ. eigenvalues --   -0.67671  -0.65022  -0.61382  -0.55436  -0.54499
 Alpha  occ. eigenvalues --   -0.53281  -0.51614  -0.47261  -0.45721  -0.42026
 Alpha  occ. eigenvalues --   -0.30815
 Alpha virt. eigenvalues --    0.02845   0.03301   0.03716   0.04609   0.05823
 Alpha virt. eigenvalues --    0.06175   0.06368   0.07167   0.10057   0.10977
 Alpha virt. eigenvalues --    0.12073   0.12634   0.13325   0.13576   0.14009

 Mulliken charges:
               1
     1  C    0.006221
     2  C    1.124349
     3  O   -1.444511
     4  C    0.066019
     5  C    0.154942
     6  C   -0.020711
     7  C   -0.345519
     8  H    0.005253
     9  H    0.096984
    10  H   -0.041540
    11  H    0.560700
    12  H    0.057168
    13  H    0.105227
    14  H   -0.130674
    15  H   -0.193910
 Sum of Mulliken charges =  -0.00000

 Dipole moment (field-independent basis, Debye):
    X=              1.7910    Y=             -2.8629    Z=              1.6343  Tot=              3.7516

 Test job not archived.
 1\1\GINC-SE021\SP\RHF\Aug-CC-pVDZ\C6H8O1\OHZDE\09-Apr-2025\0\\#t hf au
 g-cc-pvdz iop(5/13=1,5/36=2,99/5=2) pseudo=read geom=check guess=(read
 ,tcheck) scf=(maxcycle=1)\\title\\0,1\C,0,-1.54621766,-0.22810526,-0.3
 0883199\C,0,-0.61676124,-0.51309661,0.87917596\O,0,0.22432185,-1.58008
 109,0.41209686\C,0,1.10300633,-0.98795552,-0.461732\C,0,1.61844058,0.2
 5802452,0.28087006\C,0,0.21772538,0.74720737,0.47676515\C,0,-0.3447927
 5,0.433737,-0.93179852\H,0,-2.04704855,-1.06333955,-0.79751713\H,0,-2.
 26763373,0.54322897,-0.0228631\H,0,-0.9877336,-0.70300391,1.88363338\H

 Normal termination of Gaussian 16 at Wed Apr  9 03:51:48 2025.
