 Gaussian 16, Revision C.01,

 ----------------------------------------------------------------------
 #t hf aug-cc-pvdz symm=none int=(grid=ultrafine) guess=(read,tcheck) s
 table=(opt,rrhf)
 ----------------------------------------------------------------------
 -----
 title
 -----
 Symbolic Z-matrix:
 Charge =  0 Multiplicity = 1

 SCF Done:  E(RHF) =  -316.483059147     A.U. after   17 cycles
 Normal termination of Gaussian 16 at Wed Apr  9 18:16:57 2025.
 Gaussian 16:  ES64L-G16RevC.01  3-Jul-2019

 ----------------------------------------------------------------------
 #t hf aug-cc-pvdz iop(5/13=1,5/36=2,99/5=2) pseudo=read geom=check gue
 ss=(read,tcheck) scf=(maxcycle=1)
 ----------------------------------------------------------------------
 -----
 title
 -----
 Structure from the checkpoint file:  "Grambow2020_wb97xd3_007267_reverse_mol2.chk"
 Charge =  0 Multiplicity = 1

                         Standard orientation:
 ---------------------------------------------------------------------
 Center     Atomic      Atomic             Coordinates (Angstroms)
 Number     Number       Type             X           Y           Z
 ---------------------------------------------------------------------
      1          7           0       -2.863563   -0.053810    0.001216
      2          6           0       -1.719717    0.016260   -0.000579
      3          6           0       -0.278884    0.080853   -0.001053
      4          7           0        0.398526    1.226140   -0.000574
      5          6           0        1.734124    0.932285    0.000840
      6          6           0        1.825493   -0.570638    0.000839
      7          7           0        0.441124   -1.023225   -0.000861
      8          1           0        2.361525   -0.918808    0.888096
      9          1           0        2.363432   -0.916924   -0.886101
     10          1           0        0.076334   -1.960560   -0.000747
 ---------------------------------------------------------------------

 SCF Done:  E(RHF) =  -316.793761357     A.U. after    2 cycles

 The electronic state is 1-A.
 Alpha  occ. eigenvalues --  -15.60091 -15.57391 -15.51384 -11.41818 -11.32844
 Alpha  occ. eigenvalues --  -11.30537 -11.27889  -1.38834  -1.28729  -1.22100
 Alpha  occ. eigenvalues --   -1.08059  -0.93822  -0.87864  -0.84636  -0.71503
 Alpha  occ. eigenvalues --   -0.70137  -0.65516  -0.64714  -0.59890  -0.56372
 Alpha  occ. eigenvalues --   -0.53254  -0.51351  -0.47407  -0.36803
 Alpha virt. eigenvalues --    0.00173   0.01533   0.04064   0.04224   0.05938
 Alpha virt. eigenvalues --    0.08017   0.09085   0.10386   0.10606   0.10974
 Alpha virt. eigenvalues --    0.11421   0.12958   0.14095   0.14549   0.15091

 Mulliken charges:
               1
     1  N    1.182973
     2  C   -2.030593
     3  C   -0.326377
     4  N    0.765415
     5  C   -0.505946
     6  C   -0.114217
     7  N    0.751808
     8  H    0.136233
     9  H    0.137379
    10  H    0.003324
 Sum of Mulliken charges =  -0.00000

 Dipole moment (field-independent basis, Debye):
    X=              1.7134    Y=             -6.0287    Z=             -0.0040  Tot=              6.2674

 Test job not archived.
 1\1\GINC-SE035\SP\RHF\Aug-CC-pVDZ\C4H3N3\OHZDE\09-Apr-2025\0\\#t hf au
 g-cc-pvdz iop(5/13=1,5/36=2,99/5=2) pseudo=read geom=check guess=(read
 ,tcheck) scf=(maxcycle=1)\\title\\0,1\N,0,3.09045792,-1.01936749,0.563
 86838\C,0,2.01782916,-0.76581458,0.25006161\C,0,0.66624917,-0.43178854
 ,-0.12654312\N,0,0.02276964,-1.02324592,-1.12987667\C,0,-1.22826544,-0
 .47757957,-1.21551326\C,0,-1.30345678,0.55465993,-0.12191722\N,0,-0.00
 136749,0.4972276,0.52814412\H,0,-2.11158402,0.31291352,0.57397501\H,0,
 -1.49781764,1.54314036,-0.54745915\H,0,0.34726147,1.0305617,1.30639928

 Normal termination of Gaussian 16 at Wed Apr  9 18:17:00 2025.
