 Gaussian 16, Revision C.01,

 ----------------------------------------------------------------------
 #t hf aug-cc-pvdz symm=none int=(grid=ultrafine) guess=(read,tcheck) s
 table=(opt,rrhf)
 ----------------------------------------------------------------------
 -----
 title
 -----
 Symbolic Z-matrix:
 Charge =  0 Multiplicity = 1

 SCF Done:  E(RHF) =  -373.333377737     A.U. after   15 cycles
 Normal termination of Gaussian 16 at Wed Apr  9 03:27:59 2025.
 Gaussian 16:  ES64L-G16RevC.01  3-Jul-2019

 ----------------------------------------------------------------------
 #t hf aug-cc-pvdz iop(5/13=1,5/36=2,99/5=2) pseudo=read geom=check gue
 ss=(read,tcheck) scf=(maxcycle=1)
 ----------------------------------------------------------------------
 -----
 title
 -----
 Structure from the checkpoint file:  "Grambow2020_wb97xd3_006707_reverse_mol2.chk"
 Charge =  0 Multiplicity = 1

                         Standard orientation:
 ---------------------------------------------------------------------
 Center     Atomic      Atomic             Coordinates (Angstroms)
 Number     Number       Type             X           Y           Z
 ---------------------------------------------------------------------
      1          8           0        2.681063    0.213124    0.006717
      2          6           0        1.861840   -0.638036   -0.002021
      3          6           0       -2.808247   -0.948339    0.003940
      4          7           0       -2.039682   -0.067587    0.001623
      5          6           0       -1.141004    0.970593   -0.000949
      6          7           0        0.119163    0.853318   -0.003572
      7          8           0        0.503568   -0.470265   -0.004440
      8          1           0        2.037540   -1.721816   -0.009384
      9          1           0       -1.546491    1.973512   -0.001011
 ---------------------------------------------------------------------

 SCF Done:  E(RHF) =  -373.690264988     A.U. after    2 cycles

 The electronic state is 1-A.
 Alpha  occ. eigenvalues --  -20.65240 -20.56752 -15.61574 -15.57470 -11.41462
 Alpha  occ. eigenvalues --  -11.38244 -11.33353  -1.60743  -1.50543  -1.33659
 Alpha  occ. eigenvalues --   -1.24443  -1.02262  -0.91877  -0.79499  -0.77586
 Alpha  occ. eigenvalues --   -0.71221  -0.70525  -0.67365  -0.62762  -0.56984
 Alpha  occ. eigenvalues --   -0.54541  -0.54359  -0.51858  -0.47533  -0.45200
 Alpha virt. eigenvalues --    0.02967   0.03966   0.04352   0.07785   0.07990
 Alpha virt. eigenvalues --    0.08156   0.08775   0.08790   0.10312   0.11536
 Alpha virt. eigenvalues --    0.12271   0.14061   0.14771   0.15775   0.16291

 Mulliken charges:
               1
     1  O   -0.913803
     2  C    1.280521
     3  C   -0.456028
     4  N    0.746441
     5  C   -0.668537
     6  N    1.095660
     7  O   -1.138746
     8  H    0.084943
     9  H   -0.030451
 Sum of Mulliken charges =   0.00000

 Dipole moment (field-independent basis, Debye):
    X=             -1.7394    Y=             -0.3081    Z=             -0.0167  Tot=              1.7665

 Test job not archived.
 1\1\GINC-SE455\SP\RHF\Aug-CC-pVDZ\C3H2N2O2\OHZDE\09-Apr-2025\0\\#t hf
 aug-cc-pvdz iop(5/13=1,5/36=2,99/5=2) pseudo=read geom=check guess=(re
 ad,tcheck) scf=(maxcycle=1)\\title\\0,1\O,0,-1.80655456,-1.01649854,-1
 .85210018\C,0,-1.83440527,-0.47594191,-0.80200571\C,0,1.23220467,1.198
 9104,2.31196477\N,0,1.3163741,0.67658942,1.26960275\C,0,1.42070351,0.0
 6323495,0.04552785\N,0,0.45051495,-0.32774569,-0.66696779\O,0,-0.75948
 724,-0.06220322,-0.06279932\H,0,-2.7275202,-0.20530749,-0.22355231\H,0
 ,2.41791602,-0.09850991,-0.34134506\\Version=ES64L-G16RevC.01\State=1-

 Normal termination of Gaussian 16 at Wed Apr  9 03:28:02 2025.
