 Gaussian 16, Revision C.01,

 ----------------------------------------------------------------------
 #t hf aug-cc-pvdz symm=none int=(grid=ultrafine) guess=(read,tcheck) s
 table=(opt,rrhf)
 ----------------------------------------------------------------------
 -----
 title
 -----
 Symbolic Z-matrix:
 Charge =  0 Multiplicity = 1

 SCF Done:  E(RHF) =  -338.598435039     A.U. after   17 cycles
 Normal termination of Gaussian 16 at Wed Apr  9 19:05:51 2025.
 Gaussian 16:  ES64L-G16RevC.01  3-Jul-2019

 ----------------------------------------------------------------------
 #t hf aug-cc-pvdz iop(5/13=1,5/36=2,99/5=2) pseudo=read geom=check gue
 ss=(read,tcheck) scf=(maxcycle=1)
 ----------------------------------------------------------------------
 -----
 title
 -----
 Structure from the checkpoint file:  "Grambow2020_wb97xd3_008547_reverse_mol2.chk"
 Charge =  0 Multiplicity = 1

                         Standard orientation:
 ---------------------------------------------------------------------
 Center     Atomic      Atomic             Coordinates (Angstroms)
 Number     Number       Type             X           Y           Z
 ---------------------------------------------------------------------
      1          6           0       -1.119756   -1.605369   -0.474748
      2          6           0       -0.452596   -0.375462    0.098657
      3          7           0       -1.331183    0.808250   -0.086916
      4          8           0       -0.752306    1.852800   -0.106114
      5          6           0        1.007859   -0.147464    0.181392
      6          7           0        2.102717    0.021229   -0.594292
      7          6           0        0.424731   -0.386456    1.310816
      8          1           0       -1.324992   -1.488963   -1.541208
      9          1           0       -0.478927   -2.476244   -0.340070
     10          1           0       -2.071622   -1.791999    0.025749
     11          1           0        2.949243    0.291146   -0.122547
     12          1           0        1.951850    0.488729   -1.470972
     13          1           0        0.430728   -0.562912    2.369710
 ---------------------------------------------------------------------

 SCF Done:  E(RHF) =  -338.940339713     A.U. after    2 cycles

 The electronic state is 1-A.
 Alpha  occ. eigenvalues --  -20.59882 -15.62037 -15.53780 -11.30187 -11.28637
 Alpha  occ. eigenvalues --  -11.24389 -11.23098  -1.58686  -1.25540  -1.18021
 Alpha  occ. eigenvalues --   -1.03381  -0.95492  -0.81661  -0.79846  -0.74980
 Alpha  occ. eigenvalues --   -0.73215  -0.68515  -0.64488  -0.62291  -0.57162
 Alpha  occ. eigenvalues --   -0.55542  -0.55260  -0.51918  -0.43485  -0.40940
 Alpha  occ. eigenvalues --   -0.35526
 Alpha virt. eigenvalues --    0.02716   0.04044   0.04445   0.05367   0.05930
 Alpha virt. eigenvalues --    0.06133   0.08004   0.10210   0.10740   0.11226
 Alpha virt. eigenvalues --    0.12501   0.13198   0.14143   0.14782   0.15118

 Mulliken charges:
               1
     1  C   -0.321283
     2  C   -0.803597
     3  N    1.288118
     4  O   -1.114251
     5  C   -1.222455
     6  N    0.907400
     7  C    0.597197
     8  H    0.208810
     9  H    0.217245
    10  H    0.194464
    11  H    0.132707
    12  H    0.100289
    13  H   -0.184644
 Sum of Mulliken charges =  -0.00000

 Dipole moment (field-independent basis, Debye):
    X=              2.7951    Y=             -1.2238    Z=              0.0004  Tot=              3.0513

 Test job not archived.
 1\1\GINC-SE135\SP\RHF\Aug-CC-pVDZ\C4H6N2O1\OHZDE\09-Apr-2025\0\\#t hf
 aug-cc-pvdz iop(5/13=1,5/36=2,99/5=2) pseudo=read geom=check guess=(re
 ad,tcheck) scf=(maxcycle=1)\\title\\0,1\C,0,-1.72028346,-0.28050006,0.
 25656069\C,0,-0.40925748,0.16274656,-0.35278974\N,0,-0.42675631,-0.078
 71321,-1.81870831\O,0,0.65458351,-0.20687329,-2.30945409\C,0,0.9026995
 4,0.16316811,0.33315908\N,0,1.81552137,-0.67054605,0.88137013\C,0,0.38
 74458,1.33247244,0.13317349\H,0,-1.90402884,-1.34289554,0.08173925\H,0
 ,-1.71201675,-0.10445553,1.33181034\H,0,-2.55198467,0.2743806,-0.18134

 Normal termination of Gaussian 16 at Wed Apr  9 19:05:55 2025.
