 Gaussian 16, Revision C.01,

 ----------------------------------------------------------------------
 #t hf aug-cc-pvdz symm=none int=(grid=ultrafine) guess=(read,tcheck) s
 table=(opt,rrhf)
 ----------------------------------------------------------------------
 -----
 title
 -----
 Symbolic Z-matrix:
 Charge =  0 Multiplicity = 1

 SCF Done:  E(RHF) =  -322.742012943     A.U. after   14 cycles
 Normal termination of Gaussian 16 at Wed Apr  9 04:04:44 2025.
 Gaussian 16:  ES64L-G16RevC.01  3-Jul-2019

 ----------------------------------------------------------------------
 #t hf aug-cc-pvdz iop(5/13=1,5/36=2,99/5=2) pseudo=read geom=check gue
 ss=(read,tcheck) scf=(maxcycle=1)
 ----------------------------------------------------------------------
 -----
 title
 -----
 Structure from the checkpoint file:  "Grambow2020_wb97xd3_009153_forward_mol2.chk"
 Charge =  0 Multiplicity = 1

                         Standard orientation:
 ---------------------------------------------------------------------
 Center     Atomic      Atomic             Coordinates (Angstroms)
 Number     Number       Type             X           Y           Z
 ---------------------------------------------------------------------
      1          6           0        1.686914   -1.147547    0.000338
      2          7           0        0.362769   -0.573937   -0.000802
      3          6           0       -0.831079   -1.262386   -0.000597
      4          6           0       -1.848068   -0.354717    0.000243
      5          6           0       -1.268290    0.946764    0.000518
      6          6           0        0.087365    0.754191    0.000147
      7          8           0        1.141607    1.605541   -0.000031
      8          1           0        2.239576   -0.854776    0.894010
      9          1           0        2.249717   -0.828571   -0.877681
     10          1           0        1.592797   -2.231612   -0.015223
     11          1           0       -0.841308   -2.340142    0.001982
     12          1           0       -2.900609   -0.588276   -0.000883
     13          1           0       -1.782184    1.894815    0.000632
     14          1           0        0.808718    2.503958   -0.000880
 ---------------------------------------------------------------------

 SCF Done:  E(RHF) =  -323.075891140     A.U. after    2 cycles

 The electronic state is 1-A.
 Alpha  occ. eigenvalues --  -20.58758 -15.53761 -11.31714 -11.27625 -11.24476
 Alpha  occ. eigenvalues --  -11.21392 -11.20616  -1.50712  -1.29843  -1.08532
 Alpha  occ. eigenvalues --   -0.98071  -0.94803  -0.82588  -0.77069  -0.73763
 Alpha  occ. eigenvalues --   -0.66712  -0.66228  -0.63600  -0.59764  -0.57858
 Alpha  occ. eigenvalues --   -0.57835  -0.54645  -0.52888  -0.51589  -0.35905
 Alpha  occ. eigenvalues --   -0.28777
 Alpha virt. eigenvalues --    0.03373   0.03950   0.04591   0.05146   0.05421
 Alpha virt. eigenvalues --    0.05774   0.07681   0.10539   0.11644   0.12351
 Alpha virt. eigenvalues --    0.13563   0.14074   0.14512   0.14598   0.15355

 Mulliken charges:
               1
     1  C   -0.283096
     2  N    1.139194
     3  C    0.045941
     4  C    0.207904
     5  C    0.468783
     6  C    0.000130
     7  O   -1.573912
     8  H    0.172315
     9  H    0.168675
    10  H    0.005069
    11  H   -0.311492
    12  H   -0.145128
    13  H   -0.187045
    14  H    0.292659
 Sum of Mulliken charges =  -0.00000

 Dipole moment (field-independent basis, Debye):
    X=              0.9502    Y=              0.3483    Z=             -0.0001  Tot=              1.0121

 Test job not archived.
 1\1\GINC-SE334\SP\RHF\Aug-CC-pVDZ\C5H7N1O1\OHZDE\09-Apr-2025\0\\#t hf
 aug-cc-pvdz iop(5/13=1,5/36=2,99/5=2) pseudo=read geom=check guess=(re
 ad,tcheck) scf=(maxcycle=1)\\title\\0,1\C,0,-1.81606294,0.10871111,0.5
 5875958\N,0,-0.46555561,-0.15368317,0.12325043\C,0,0.07506798,-1.38402
 141,-0.18208721\C,0,1.37397801,-1.20027203,-0.55249206\C,0,1.65412367,
 0.19457272,-0.4755521\C,0,0.49343362,0.78841868,-0.05718519\O,0,0.1526
 3842,2.07554561,0.19457787\H,0,-2.33681812,0.7553899,-0.14864438\H,0,-
 1.82265308,0.58736732,1.53868601\H,0,-2.34694288,-0.83895072,0.6251003

 Normal termination of Gaussian 16 at Wed Apr  9 04:04:48 2025.
