 Gaussian 16, Revision C.01,

 ----------------------------------------------------------------------
 #t hf aug-cc-pvdz symm=none int=(grid=ultrafine) guess=(read,tcheck) s
 table=(opt,rrhf)
 ----------------------------------------------------------------------
 -----
 title
 -----
 Symbolic Z-matrix:
 Charge =  0 Multiplicity = 1

 SCF Done:  E(RHF) =  -353.586226124     A.U. after   14 cycles
 Normal termination of Gaussian 16 at Wed Apr  9 18:36:10 2025.
 Gaussian 16:  ES64L-G16RevC.01  3-Jul-2019

 ----------------------------------------------------------------------
 #t hf aug-cc-pvdz iop(5/13=1,5/36=2,99/5=2) pseudo=read geom=check gue
 ss=(read,tcheck) scf=(maxcycle=1)
 ----------------------------------------------------------------------
 -----
 title
 -----
 Structure from the checkpoint file:  "Grambow2020_wb97xd3_007762_reverse_mol2.chk"
 Charge =  0 Multiplicity = 1

                         Standard orientation:
 ---------------------------------------------------------------------
 Center     Atomic      Atomic             Coordinates (Angstroms)
 Number     Number       Type             X           Y           Z
 ---------------------------------------------------------------------
      1          8           0       -2.958017   -0.000096    0.096957
      2          6           0       -2.086810   -0.000702   -0.611240
      3          7           0        0.694767   -0.688589    1.017073
      4          6           0        1.085689   -1.072791   -0.161374
      5          7           0        1.350180    0.003958   -0.944387
      6          6           0        1.082095    1.074885   -0.154711
      7          7           0        0.692466    0.681729    1.021215
      8          1           0        1.643335    0.007688   -1.904132
      9          1           0        1.189681   -2.094374   -0.489318
     10          1           0        1.183384    2.099420   -0.475552
 ---------------------------------------------------------------------

 SCF Done:  E(RHF) =  -353.930098287     A.U. after    2 cycles

 The electronic state is 1-A.
 Alpha  occ. eigenvalues --  -20.64337 -15.58186 -15.52551 -15.52049 -11.36090
 Alpha  occ. eigenvalues --  -11.31549 -11.31507  -1.59767  -1.40574  -1.23354
 Alpha  occ. eigenvalues --   -1.12137  -0.90285  -0.88490  -0.82268  -0.79849
 Alpha  occ. eigenvalues --   -0.69394  -0.67581  -0.65228  -0.62720  -0.62668
 Alpha  occ. eigenvalues --   -0.54738  -0.53901  -0.48655  -0.48610  -0.40284
 Alpha virt. eigenvalues --    0.02156   0.03955   0.04243   0.07085   0.08007
 Alpha virt. eigenvalues --    0.08894   0.09110   0.10540   0.11835   0.12680
 Alpha virt. eigenvalues --    0.12999   0.14203   0.15063   0.15572   0.16229

 Mulliken charges:
               1
     1  O   -0.528580
     2  C    0.510704
     3  N    0.121818
     4  C   -0.398338
     5  N    0.658461
     6  C   -0.400908
     7  N    0.122008
     8  H    0.008363
     9  H   -0.047299
    10  H   -0.046229
 Sum of Mulliken charges =  -0.00000

 Dipole moment (field-independent basis, Debye):
    X=              2.0947    Y=              0.0228    Z=             -6.0258  Tot=              6.3796

 Test job not archived.
 1\1\GINC-SE232\SP\RHF\Aug-CC-pVDZ\C3H3N3O1\OHZDE\09-Apr-2025\0\\#t hf
 aug-cc-pvdz iop(5/13=1,5/36=2,99/5=2) pseudo=read geom=check guess=(re
 ad,tcheck) scf=(maxcycle=1)\\title\\0,1\O,0,3.10241122,-1.05049038,0.6
 9167812\C,0,2.3257494,-0.87971436,-0.10089699\N,0,-0.12945656,0.962636
 74,1.09888158\C,0,-0.29757337,1.24900845,-0.15765968\N,0,-0.87571229,0
 .2056869,-0.80549276\C,0,-1.03945926,-0.74258402,0.15174997\N,0,-0.602
 80147,-0.30811399,1.29619241\H,0,-1.09883555,0.13689254,-1.78147846\H,
 0,-0.02263073,2.17526562,-0.63562197\H,0,-1.47203839,-1.71337349,-0.03

 Normal termination of Gaussian 16 at Wed Apr  9 18:36:14 2025.
