 Gaussian 16, Revision C.01,

 ----------------------------------------------------------------------
 #t hf aug-cc-pvdz symm=none int=(grid=ultrafine) guess=(read,tcheck) s
 table=(opt,rrhf)
 ----------------------------------------------------------------------
 -----
 title
 -----
 Symbolic Z-matrix:
 Charge =  0 Multiplicity = 1

 SCF Done:  E(RHF) =  -514.629393916     A.U. after   12 cycles
 Normal termination of Gaussian 16 at Wed Apr  9 19:22:40 2025.
 Gaussian 16:  ES64L-G16RevC.01  3-Jul-2019

 ----------------------------------------------------------------------
 #t hf aug-cc-pvdz iop(5/13=1,5/36=2,99/5=2) pseudo=read geom=check gue
 ss=(read,tcheck) scf=(maxcycle=1)
 ----------------------------------------------------------------------
 -----
 title
 -----
 Structure from the checkpoint file:  "HB300SPXx10_1011_4.05_0.80_ethyne_thioacetone_dimer_mol3.chk"
 Charge =  0 Multiplicity = 1

                         Standard orientation:
 ---------------------------------------------------------------------
 Center     Atomic      Atomic             Coordinates (Angstroms)
 Number     Number       Type             X           Y           Z
 ---------------------------------------------------------------------
      1          1           0       -2.148601    0.381717    0.000000
      2          1           0       -1.316530    1.686602    0.874719
      3          1           0       -1.316530    1.686602   -0.874719
      4          1           0        2.147009    0.486686    0.000000
      5          1           0        1.248341    1.743348   -0.874314
      6          6           0       -1.280784    1.032127    0.000000
      7          6           0        0.000000    0.253961    0.000000
      8         16           0        0.022137   -1.373041    0.000000
      9          6           0        1.244747    1.087303    0.000000
     10          1           0        1.248341    1.743348    0.874314
 ---------------------------------------------------------------------

 SCF Done:  E(RHF) =  -514.816071162     A.U. after    2 cycles

 The electronic state is 1-A'.
 Alpha  occ. eigenvalues --  -93.92213 -11.33042 -11.25297 -11.25236  -8.20493
 Alpha  occ. eigenvalues --   -6.18307  -6.18122  -6.17889  -1.13300  -0.97468
 Alpha  occ. eigenvalues --   -0.97218  -0.73307  -0.62440  -0.62156  -0.62067
 Alpha  occ. eigenvalues --   -0.56728  -0.54076  -0.50525  -0.39219  -0.34147
 Alpha virt. eigenvalues --    0.03157   0.03832   0.04322   0.05725   0.06689
 Alpha virt. eigenvalues --    0.07299   0.07501   0.08598   0.10538   0.13409
 Alpha virt. eigenvalues --    0.14176   0.14497   0.16240   0.16888   0.16916

 Mulliken charges:
               1
     1  H    0.168228
     2  H    0.247027
     3  H    0.247027
     4  H    0.163144
     5  H    0.248235
     6  C   -0.457389
     7  C   -0.501689
     8  S    0.085636
     9  C   -0.448455
    10  H    0.248235
 Sum of Mulliken charges =  -0.00000

 Dipole moment (field-independent basis, Debye):
    X=             -0.0509    Y=              3.3881    Z=              0.0000  Tot=              3.3885

 Test job not archived.
 1\1\GINC-SE016\SP\RHF\Aug-CC-pVDZ\C3H6S1\OHZDE\09-Apr-2025\0\\#t hf au
 g-cc-pvdz iop(5/13=1,5/36=2,99/5=2) pseudo=read geom=check guess=(read
 ,tcheck) scf=(maxcycle=1)\\title\\0,1\H,0,-0.29418133,2.84736524,0.\H,
 0,1.22827177,2.56950611,0.87471889\H,0,1.22827177,2.56950611,-0.874718
 89\H,0,1.42474965,-1.0907251,0.\H,0,2.24913865,0.21586854,-0.87431367\
 C,0,0.63572496,2.28932088,0.\C,0,0.39868284,0.80953647,0.\S,0,-1.09955
 789,0.17479234,0.\C,0,1.64028628,-0.02848168,0.\H,0,2.24913865,0.21586
 854,0.87431367\\Version=ES64L-G16RevC.01\State=1-A'\HF=-514.8160712\RM

 Normal termination of Gaussian 16 at Wed Apr  9 19:22:42 2025.
