 Gaussian 16, Revision C.01,

 ----------------------------------------------------------------------
 #t hf aug-cc-pvdz symm=none int=(grid=ultrafine) guess=(read,tcheck) s
 table=(opt,rrhf)
 ----------------------------------------------------------------------
 -----
 title
 -----
 Symbolic Z-matrix:
 Charge =  0 Multiplicity = 1

 SCF Done:  E(RHF) =  -783.970311469     A.U. after   15 cycles
 Normal termination of Gaussian 16 at Wed Apr  9 19:33:34 2025.
 Gaussian 16:  ES64L-G16RevC.01  3-Jul-2019

 ----------------------------------------------------------------------
 #t hf aug-cc-pvdz iop(5/13=1,5/36=2,99/5=2) pseudo=read geom=check gue
 ss=(read,tcheck) scf=(maxcycle=1)
 ----------------------------------------------------------------------
 -----
 title
 -----
 Structure from the checkpoint file:  "HB300SPXx10_1464_5.09_0.95_nitromethane_phosphineF2_dimer_mol1.chk"
 Charge =  0 Multiplicity = 1

                         Standard orientation:
 ---------------------------------------------------------------------
 Center     Atomic      Atomic             Coordinates (Angstroms)
 Number     Number       Type             X           Y           Z
 ---------------------------------------------------------------------
      1          1           0       -1.548755    1.750501    0.071939
      2          1           0       -2.767629    1.188268   -1.097025
      3          1           0       -3.125707    1.155768    0.673071
      4          6           0       -2.371138    1.060479   -0.096915
      5          7           0       -1.781565   -0.308889   -0.008491
      6          8           0       -1.895492   -0.909795    1.040895
      7          8           0       -1.186712   -0.718747   -0.994482
      8         15           0        1.592381   -0.201619   -0.393605
      9          9           0        2.963070   -0.046396    0.416374
     10          9           0        0.801506    1.039970    0.256257
     11          1           0        1.030598   -1.184730    0.472037
 ---------------------------------------------------------------------

 SCF Done:  E(RHF) =  -784.430604994     A.U. after    2 cycles

 The electronic state is 1-A.
 Alpha  occ. eigenvalues --  -84.40585 -26.48425 -26.47653 -20.61154 -20.60256
 Alpha  occ. eigenvalues --  -15.80279 -11.32360  -6.86245  -4.39089  -4.38402
 Alpha  occ. eigenvalues --   -4.37336  -1.69045  -1.62282  -1.57797  -1.52693
 Alpha  occ. eigenvalues --   -1.13737  -0.90543  -0.88192  -0.78969  -0.77907
 Alpha  occ. eigenvalues --   -0.77204  -0.71196  -0.70512  -0.69166  -0.64914
 Alpha  occ. eigenvalues --   -0.64108  -0.62361  -0.61328  -0.57516  -0.51002
 Alpha  occ. eigenvalues --   -0.50165  -0.46982  -0.37955
 Alpha virt. eigenvalues --    0.03046   0.04273   0.05055   0.05814   0.06425
 Alpha virt. eigenvalues --    0.07918   0.09545   0.09730   0.10701   0.13160
 Alpha virt. eigenvalues --    0.13689   0.15093   0.16389   0.17018   0.18294

 Mulliken charges:
               1
     1  H    0.228407
     2  H    0.166817
     3  H    0.119985
     4  C   -0.248978
     5  N    2.516161
     6  O   -1.333097
     7  O   -1.401657
     8  P    1.487876
     9  F   -0.777910
    10  F   -0.833972
    11  H    0.076366
 Sum of Mulliken charges =  -0.00000

 Dipole moment (field-independent basis, Debye):
    X=             -2.5525    Y=              2.0423    Z=             -0.6516  Tot=              3.3333

 Test job not archived.
 1\1\GINC-SE113\SP\RHF\Aug-CC-pVDZ\C1H4F2N1O2P1\OHZDE\09-Apr-2025\0\\#t
  hf aug-cc-pvdz iop(5/13=1,5/36=2,99/5=2) pseudo=read geom=check guess
 =(read,tcheck) scf=(maxcycle=1)\\title\\0,1\H,0,0.49481138,0.55069733,
 -2.50359179\H,0,-1.08891031,0.71291216,-3.29967626\H,0,-0.00441746,2.1
 4812453,-3.13671373\C,0,-0.34098337,1.21704881,-2.69950341\N,0,-0.9468
 7558,1.51662809,-1.36768821\O,0,-0.63929751,2.55888018,-0.82511637\O,0
 ,-1.68734525,0.66720154,-0.89420145\P,0,0.00692249,-0.78551225,0.94180
 331\F,0,1.13539528,-1.10815872,2.02872413\F,0,0.97493606,-0.40679781,-

 Normal termination of Gaussian 16 at Wed Apr  9 19:33:38 2025.
