 Gaussian 16, Revision C.01,

 ----------------------------------------------------------------------
 #t hf aug-cc-pvdz symm=none int=(grid=ultrafine) guess=(read,tcheck) s
 table=(opt,rrhf)
 ----------------------------------------------------------------------
 -----
 title
 -----
 Symbolic Z-matrix:
 Charge =  0 Multiplicity = 1

 SCF Done:  E(RHF) =  -1037.69459759     A.U. after   15 cycles
 Normal termination of Gaussian 16 at Wed Apr  9 19:34:55 2025.
 Gaussian 16:  ES64L-G16RevC.01  3-Jul-2019

 ----------------------------------------------------------------------
 #t hf aug-cc-pvdz iop(5/13=1,5/36=2,99/5=2) pseudo=read geom=check gue
 ss=(read,tcheck) scf=(maxcycle=1)
 ----------------------------------------------------------------------
 -----
 title
 -----
 Structure from the checkpoint file:  "HB300SPXx10_1473_5.10_0.90_phosphaalkene_phosphineF2_dimer_mol1.chk"
 Charge =  0 Multiplicity = 1

                         Standard orientation:
 ---------------------------------------------------------------------
 Center     Atomic      Atomic             Coordinates (Angstroms)
 Number     Number       Type             X           Y           Z
 ---------------------------------------------------------------------
      1          1           0        1.411421    2.962986   -0.597329
      2          1           0        0.476052    2.159155    0.664672
      3          1           0        2.247162    2.165931    0.734912
      4          1           0        1.479975   -2.124228   -1.515341
      5          1           0        0.527812   -1.225871    2.002597
      6          1           0        2.342315   -2.627093   -0.056619
      7          1           0        0.586740   -2.682282   -0.093455
      8          1           0        1.266096    0.376702    1.999368
      9          1           0        2.271875   -1.075251    2.036105
     10         15           0        1.434242    0.566583   -0.970787
     11          6           0        1.401088   -0.710038    0.123316
     12          6           0        1.454221   -2.108635   -0.427239
     13          6           0        1.362447   -0.634380    1.618320
     14          6           0        1.386514    2.103622    0.070261
     15         15           0       -1.624744   -0.282531   -0.213812
     16          9           0       -3.228401   -0.298460   -0.226714
     17          9           0       -1.426383    0.894564    0.855141
     18          1           0       -1.484488    0.540816   -1.369720
 ---------------------------------------------------------------------

 SCF Done:  E(RHF) =  -1038.13532001     A.U. after    2 cycles

 The electronic state is 1-A.
 Alpha  occ. eigenvalues --  -84.40368 -84.25756 -26.48077 -26.47089 -11.27959
 Alpha  occ. eigenvalues --  -11.24513 -11.24259 -11.23305  -6.86018  -6.73118
 Alpha  occ. eigenvalues --   -4.38896  -4.38276  -4.37325  -4.26061  -4.25143
 Alpha  occ. eigenvalues --   -4.24810  -1.61965  -1.57315  -1.09504  -0.98198
 Alpha  occ. eigenvalues --   -0.95819  -0.88145  -0.85036  -0.70830  -0.70760
 Alpha  occ. eigenvalues --   -0.69282  -0.68992  -0.64504  -0.62419  -0.61638
 Alpha  occ. eigenvalues --   -0.60838  -0.60104  -0.57435  -0.56977  -0.55716
 Alpha  occ. eigenvalues --   -0.55673  -0.52680  -0.47103  -0.38387  -0.35329
 Alpha  occ. eigenvalues --   -0.31714
 Alpha virt. eigenvalues --    0.03480   0.03858   0.04340   0.04407   0.05849
 Alpha virt. eigenvalues --    0.06199   0.06493   0.06954   0.07934   0.08393
 Alpha virt. eigenvalues --    0.09329   0.10142   0.10629   0.11384   0.11922

 Mulliken charges:
               1
     1  H   -0.044336
     2  H    0.113174
     3  H    0.114232
     4  H    0.138016
     5  H    0.217509
     6  H    0.225821
     7  H    0.238482
     8  H    0.081599
     9  H    0.198683
    10  P    1.029693
    11  C   -0.350636
    12  C   -0.503697
    13  C   -0.511007
    14  C   -0.838966
    15  P    1.534559
    16  F   -0.790103
    17  F   -0.900810
    18  H    0.047785
 Sum of Mulliken charges =  -0.00000

 Dipole moment (field-independent basis, Debye):
    X=              1.7658    Y=             -0.3215    Z=              0.2425  Tot=              1.8112

 Test job not archived.
 1\1\GINC-SE018\SP\RHF\Aug-CC-pVDZ\C4H10F2P2\OHZDE\09-Apr-2025\0\\#t hf
  aug-cc-pvdz iop(5/13=1,5/36=2,99/5=2) pseudo=read geom=check guess=(r
 ead,tcheck) scf=(maxcycle=1)\\title\\0,1\H,0,-0.66372889,3.26375392,-1
 .41484082\H,0,0.57607353,2.07688321,-1.82463407\H,0,-0.55842324,2.6448
 712,-3.06242126\H,0,-2.87100416,-1.40911587,-1.55416728\H,0,0.42715494
 ,-1.23076192,-3.33739031\H,0,-2.60862974,-1.75549695,-3.26751243\H,0,-
 1.47646146,-2.36750684,-2.07165071\H,0,0.4157342,0.51539066,-3.5906339
 2\H,0,-0.67072928,-0.53226666,-4.50884988\P,0,-1.6570918,1.05342876,-1

 Normal termination of Gaussian 16 at Wed Apr  9 19:35:05 2025.
