 Gaussian 16, Revision C.01,

 ----------------------------------------------------------------------
 #t hf aug-cc-pvdz symm=none int=(grid=ultrafine) guess=(read,tcheck) s
 table=(opt,rrhf)
 ----------------------------------------------------------------------
 -----
 title
 -----
 Symbolic Z-matrix:
 Charge =  0 Multiplicity = 1

 SCF Done:  E(RHF) =  -645.424824557     A.U. after   14 cycles
 Normal termination of Gaussian 16 at Wed Apr  9 19:29:09 2025.
 Gaussian 16:  ES64L-G16RevC.01  3-Jul-2019

 ----------------------------------------------------------------------
 #t hf aug-cc-pvdz iop(5/13=1,5/36=2,99/5=2) pseudo=read geom=check gue
 ss=(read,tcheck) scf=(maxcycle=1)
 ----------------------------------------------------------------------
 -----
 title
 -----
 Structure from the checkpoint file:  "HB300SPXx10_125_1.13_1.00_sulfane_pyridine_dimer_mol1.chk"
 Charge =  0 Multiplicity = 1

                         Standard orientation:
 ---------------------------------------------------------------------
 Center     Atomic      Atomic             Coordinates (Angstroms)
 Number     Number       Type             X           Y           Z
 ---------------------------------------------------------------------
      1          1           0        2.040360   -0.305488   -0.027445
      2          1           0        3.496096   -0.039831    1.252416
      3         16           0        3.358460    0.012086   -0.080255
      4          1           0       -3.045387   -1.819418   -0.003395
      5          1           0       -0.606613   -2.292705   -0.000745
      6          6           0       -2.750458    0.316541   -0.000141
      7          6           0       -2.333433   -1.007268   -0.001042
      8          6           0       -0.970485   -1.272927    0.000603
      9          7           0       -0.043455   -0.315799    0.003289
     10          6           0       -0.450832    0.952984    0.003944
     11          6           0       -1.790518    1.318598    0.002354
     12          1           0        0.330684    1.702916    0.005008
     13          1           0       -2.068975    2.362079    0.002649
     14          1           0       -3.802990    0.562098   -0.001728
 ---------------------------------------------------------------------

 SCF Done:  E(RHF) =  -645.742144550     A.U. after    2 cycles

 The electronic state is 1-A.
 Alpha  occ. eigenvalues --  -93.93316 -15.51684 -11.29140 -11.29026 -11.27591
 Alpha  occ. eigenvalues --  -11.25785 -11.25755  -8.21441  -6.19323  -6.19202
 Alpha  occ. eigenvalues --   -6.18975  -1.27421  -1.10441  -1.05153  -0.99090
 Alpha  occ. eigenvalues --   -0.89004  -0.88062  -0.75145  -0.70200  -0.67194
 Alpha  occ. eigenvalues --   -0.62388  -0.61650  -0.57645  -0.56520  -0.54736
 Alpha  occ. eigenvalues --   -0.49229  -0.45134  -0.41663  -0.36896  -0.36641
 Alpha virt. eigenvalues --    0.02872   0.03541   0.03872   0.05304   0.05543
 Alpha virt. eigenvalues --    0.06739   0.07392   0.08757   0.09201   0.10406
 Alpha virt. eigenvalues --    0.10820   0.12187   0.12464   0.13106   0.13608

 Mulliken charges:
               1
     1  H    0.443771
     2  H    0.234173
     3  S   -0.620467
     4  H   -0.189240
     5  H   -0.212996
     6  C    0.100173
     7  C    0.703480
     8  C   -0.719765
     9  N    0.883095
    10  C   -0.730443
    11  C    0.756708
    12  H   -0.285046
    13  H   -0.193545
    14  H   -0.169898
 Sum of Mulliken charges =  -0.00000

 Dipole moment (field-independent basis, Debye):
    X=             -4.4554    Y=              0.3012    Z=              0.8408  Tot=              4.5441

 Test job not archived.
 1\1\GINC-SE084\SP\RHF\Aug-CC-pVDZ\C5H7N1S1\OHZDE\09-Apr-2025\0\\#t hf
 aug-cc-pvdz iop(5/13=1,5/36=2,99/5=2) pseudo=read geom=check guess=(re
 ad,tcheck) scf=(maxcycle=1)\\title\\0,1\H,0,1.25021154,1.5960457,0.136
 91261\H,0,3.15091491,1.84193998,0.53016902\S,0,2.02337536,2.53859467,0
 .73260516\H,0,-1.86518653,-1.85840059,-2.41621818\H,0,-0.32680417,0.09
 124999,-2.35403512\C,0,-1.73790547,-2.17632075,-0.28735921\C,0,-1.4413
 0545,-1.52934414,-1.47892562\C,0,-0.5813956,-0.43956024,-1.44531306\N,
 0,-0.02696375,0.0143895,-0.32191621\C,0,-0.31619852,-0.61134171,0.8185

 Normal termination of Gaussian 16 at Wed Apr  9 19:29:14 2025.
