 Gaussian 16, Revision C.01,

 ----------------------------------------------------------------------
 #t hf aug-cc-pvdz symm=none int=(grid=ultrafine) guess=(read,tcheck) s
 table=(opt,rrhf)
 ----------------------------------------------------------------------
 -----
 title
 -----
 Symbolic Z-matrix:
 Charge =  0 Multiplicity = 1

 SCF Done:  E(RHF) =  -576.785013884     A.U. after   12 cycles
 Normal termination of Gaussian 16 at Wed Apr  9 19:31:48 2025.
 Gaussian 16:  ES64L-G16RevC.01  3-Jul-2019

 ----------------------------------------------------------------------
 #t hf aug-cc-pvdz iop(5/13=1,5/36=2,99/5=2) pseudo=read geom=check gue
 ss=(read,tcheck) scf=(maxcycle=1)
 ----------------------------------------------------------------------
 -----
 title
 -----
 Structure from the checkpoint file:  "HB300SPXx10_1432_5.06_0.85_methanethiol_methylfluoride_dimer_mol1.chk"
 Charge =  0 Multiplicity = 1

                         Standard orientation:
 ---------------------------------------------------------------------
 Center     Atomic      Atomic             Coordinates (Angstroms)
 Number     Number       Type             X           Y           Z
 ---------------------------------------------------------------------
      1          1           0        1.676906    1.728526   -0.516635
      2          1           0        1.615009    1.352540    1.210371
      3          1           0        0.115067    1.381205    0.264643
      4          1           0        0.707935   -0.720598   -1.185905
      5          6           0        1.172172    1.137028    0.241535
      6         16           0        1.416095   -0.646287   -0.049446
      7          1           0       -1.135836   -0.830186    0.877743
      8          1           0       -2.632474    0.106087    1.181890
      9          1           0       -2.636688   -1.220839   -0.013336
     10          6           0       -2.044382   -0.425971    0.436248
     11          9           0       -1.681575    0.475279   -0.566038
 ---------------------------------------------------------------------

 SCF Done:  E(RHF) =  -577.029612013     A.U. after    2 cycles

 The electronic state is 1-A.
 Alpha  occ. eigenvalues --  -93.94338 -26.44843 -11.31605 -11.25938  -8.22448
 Alpha  occ. eigenvalues --   -6.20306  -6.20161  -6.19935  -1.56783  -1.05609
 Alpha  occ. eigenvalues --   -0.95177  -0.88000  -0.69265  -0.68613  -0.66441
 Alpha  occ. eigenvalues --   -0.60887  -0.58750  -0.53206  -0.52798  -0.52578
 Alpha  occ. eigenvalues --   -0.46271  -0.36068
 Alpha virt. eigenvalues --    0.03618   0.03953   0.04686   0.05439   0.06825
 Alpha virt. eigenvalues --    0.07799   0.08458   0.11027   0.11837   0.13528
 Alpha virt. eigenvalues --    0.14663   0.15135   0.15528   0.16396   0.17464

 Mulliken charges:
               1
     1  H    0.117230
     2  H    0.183728
     3  H    0.150590
     4  H    0.384584
     5  C   -0.642810
     6  S   -0.215514
     7  H    0.148939
     8  H    0.137384
     9  H    0.084087
    10  C    0.367845
    11  F   -0.716064
 Sum of Mulliken charges =  -0.00000

 Dipole moment (field-independent basis, Debye):
    X=             -1.3225    Y=              0.3143    Z=              0.8388  Tot=              1.5973

 Test job not archived.
 1\1\GINC-SE097\SP\RHF\Aug-CC-pVDZ\C2H7F1S1\OHZDE\09-Apr-2025\0\\#t hf
 aug-cc-pvdz iop(5/13=1,5/36=2,99/5=2) pseudo=read geom=check guess=(re
 ad,tcheck) scf=(maxcycle=1)\\title\\0,1\H,0,2.08229041,-1.4254109,-0.5
 8197167\H,0,2.56243491,-0.07269824,0.45116733\H,0,1.30281242,0.1638302
 2,-0.77457926\H,0,-0.45614858,-1.39442223,0.38777169\C,0,1.72720839,-0
 .53887394,-0.06484534\S,0,0.50833702,-0.97408013,1.21941614\H,0,-0.657
 85293,1.36660651,0.46639618\H,0,-0.73051015,2.58814883,-0.84188236\H,0
 ,-2.18212603,1.63254236,-0.43085411\C,0,-1.09566008,1.62271848,-0.4961

 Normal termination of Gaussian 16 at Wed Apr  9 19:31:51 2025.
