 Gaussian 16, Revision C.01,

 ----------------------------------------------------------------------
 #t hf aug-cc-pvdz symm=none int=(grid=ultrafine) guess=(read,tcheck) s
 table=(opt,rrhf)
 ----------------------------------------------------------------------
 -----
 title
 -----
 Symbolic Z-matrix:
 Charge =  0 Multiplicity = 1

 SCF Done:  E(RHF) =  -553.682102877     A.U. after   12 cycles
 Normal termination of Gaussian 16 at Wed Apr  9 19:21:50 2025.
 Gaussian 16:  ES64L-G16RevC.01  3-Jul-2019

 ----------------------------------------------------------------------
 #t hf aug-cc-pvdz iop(5/13=1,5/36=2,99/5=2) pseudo=read geom=check gue
 ss=(read,tcheck) scf=(maxcycle=1)
 ----------------------------------------------------------------------
 -----
 title
 -----
 Structure from the checkpoint file:  "HB300SPXx10_1001_4.04_0.80_ethyne_tetrahydrothiophene_dimer_mol3.chk"
 Charge =  0 Multiplicity = 1

                         Standard orientation:
 ---------------------------------------------------------------------
 Center     Atomic      Atomic             Coordinates (Angstroms)
 Number     Number       Type             X           Y           Z
 ---------------------------------------------------------------------
      1          1           0        0.014685   -1.657610    1.195100
      2          1           0        0.358853   -2.175427   -0.460736
      3          1           0       -2.112826   -1.306830    0.088541
      4          1           0        0.041297    1.731647   -1.130900
      5          1           0       -1.328301   -0.707821   -1.371785
      6          1           0        0.331713    2.146047    0.562069
      7          1           0       -2.119028    1.287961   -0.145882
      8          1           0       -1.394159    0.687021    1.342655
      9         16           0        1.308242    0.001102   -0.011446
     10          6           0        0.055985   -1.333909    0.156356
     11          6           0       -1.271433   -0.721097   -0.282293
     12          6           0       -1.289118    0.707977    0.258045
     13          6           0        0.050548    1.343258   -0.114761
 ---------------------------------------------------------------------

 SCF Done:  E(RHF) =  -553.915763302     A.U. after    2 cycles

 The electronic state is 1-A.
 Alpha  occ. eigenvalues --  -93.92794 -11.26056 -11.26038 -11.24080 -11.24037
 Alpha  occ. eigenvalues --   -8.20923  -6.18726  -6.18606  -6.18374  -1.13692
 Alpha  occ. eigenvalues --   -0.98953  -0.98266  -0.79996  -0.79521  -0.66556
 Alpha  occ. eigenvalues --   -0.65031  -0.60687  -0.55584  -0.51479  -0.50274
 Alpha  occ. eigenvalues --   -0.48838  -0.48523  -0.42860  -0.33659
 Alpha virt. eigenvalues --    0.03524   0.03871   0.03970   0.04775   0.06483
 Alpha virt. eigenvalues --    0.06531   0.06788   0.07642   0.08758   0.13261
 Alpha virt. eigenvalues --    0.14343   0.14669   0.15081   0.15131   0.15328

 Mulliken charges:
               1
     1  H    0.171536
     2  H    0.167009
     3  H    0.156928
     4  H    0.163571
     5  H    0.107383
     6  H    0.180417
     7  H    0.153571
     8  H    0.107930
     9  S    0.541074
    10  C   -0.615359
    11  C   -0.257399
    12  C   -0.265683
    13  C   -0.610977
 Sum of Mulliken charges =  -0.00000

 Dipole moment (field-independent basis, Debye):
    X=             -2.3155    Y=              0.0012    Z=              0.0421  Tot=              2.3159

 Test job not archived.
 1\1\GINC-SE222\SP\RHF\Aug-CC-pVDZ\C4H8S1\OHZDE\09-Apr-2025\0\\#t hf au
 g-cc-pvdz iop(5/13=1,5/36=2,99/5=2) pseudo=read geom=check guess=(read
 ,tcheck) scf=(maxcycle=1)\\title\\0,1\H,0,0.64913987,-1.71913298,-0.37
 850813\H,0,-0.82552028,-1.76596597,-1.35398912\H,0,-1.07337188,-2.0255
 1013,1.29866424\H,0,-1.38857366,1.77037472,0.37588085\H,0,-2.17040906,
 -0.92505347,0.46658945\H,0,0.32327887,1.96101412,0.77013087\H,0,-1.181
 69111,0.36487842,2.32931443\H,0,0.43357469,-0.16180557,1.86474186\S,0,
 0.00459441,0.49304313,-1.13429039\C,0,-0.30405744,-1.22787809,-0.56708

 Normal termination of Gaussian 16 at Wed Apr  9 19:21:54 2025.
