 Gaussian 16, Revision C.01,

 ----------------------------------------------------------------------
 #t hf aug-cc-pvdz symm=none int=(grid=ultrafine) guess=(read,tcheck) s
 table=(opt,rrhf)
 ----------------------------------------------------------------------
 -----
 title
 -----
 Symbolic Z-matrix:
 Charge =  0 Multiplicity = 1

 SCF Done:  E(RHF) =  -974.719896110     A.U. after   13 cycles
 Normal termination of Gaussian 16 at Wed Apr  9 19:30:50 2025.
 Gaussian 16:  ES64L-G16RevC.01  3-Jul-2019

 ----------------------------------------------------------------------
 #t hf aug-cc-pvdz iop(5/13=1,5/36=2,99/5=2) pseudo=read geom=check gue
 ss=(read,tcheck) scf=(maxcycle=1)
 ----------------------------------------------------------------------
 -----
 title
 -----
 Structure from the checkpoint file:  "HB300SPXx10_1373_4.42_0.90_hydrogenchloride_thioacetone_dimer_mol1.chk"
 Charge =  0 Multiplicity = 1

                         Standard orientation:
 ---------------------------------------------------------------------
 Center     Atomic      Atomic             Coordinates (Angstroms)
 Number     Number       Type             X           Y           Z
 ---------------------------------------------------------------------
      1          1           0        1.540561   -0.046613    0.000000
      2         17           0        2.493739   -0.956741    0.000000
      3          1           0       -0.176042   -1.600047    0.000000
      4          1           0       -1.720749   -1.644569    0.874054
      5          1           0       -1.720749   -1.644569   -0.874054
      6          1           0       -2.704135    1.878459    0.000000
      7          1           0       -3.232976    0.423930   -0.874659
      8          6           0       -1.200044   -1.245351    0.000000
      9          6           0       -1.298688    0.247019    0.000000
     10         16           0        0.000000    1.231255    0.000000
     11          6           0       -2.692349    0.793999    0.000000
     12          1           0       -3.232976    0.423930    0.874659
 ---------------------------------------------------------------------

 SCF Done:  E(RHF) =  -974.986559099     A.U. after    2 cycles

 The electronic state is 1-A'.
 Alpha  occ. eigenvalues -- -105.53447 -93.94692 -11.35521 -11.26895 -11.26461
 Alpha  occ. eigenvalues --  -10.58337  -8.23126  -7.75291  -7.74972  -7.74959
 Alpha  occ. eigenvalues --   -6.20925  -6.20718  -6.20554  -1.15633  -1.03351
 Alpha  occ. eigenvalues --   -0.99711  -0.98805  -0.75474  -0.64980  -0.63979
 Alpha  occ. eigenvalues --   -0.63919  -0.59617  -0.58108  -0.55839  -0.52177
 Alpha  occ. eigenvalues --   -0.44823  -0.44723  -0.41587  -0.36725
 Alpha virt. eigenvalues --    0.02628   0.02832   0.04058   0.05240   0.05611
 Alpha virt. eigenvalues --    0.07073   0.07160   0.07979   0.09433   0.11037
 Alpha virt. eigenvalues --    0.13202   0.13569   0.14081   0.15293   0.15857

 Mulliken charges:
               1
     1  H    0.412326
     2  Cl  -0.277438
     3  H    0.032636
     4  H    0.290210
     5  H    0.290210
     6  H    0.171643
     7  H    0.256805
     8  C   -0.452902
     9  C   -0.495359
    10  S    0.011012
    11  C   -0.495947
    12  H    0.256805
 Sum of Mulliken charges =  -0.00000

 Dipole moment (field-independent basis, Debye):
    X=             -5.2958    Y=             -0.3834    Z=             -0.0000  Tot=              5.3097

 Test job not archived.
 1\1\GINC-SE229\SP\RHF\Aug-CC-pVDZ\C3H7Cl1S1\OHZDE\09-Apr-2025\0\\#t hf
  aug-cc-pvdz iop(5/13=1,5/36=2,99/5=2) pseudo=read geom=check guess=(r
 ead,tcheck) scf=(maxcycle=1)\\title\\0,1\H,0,-0.37830043,1.49279945,0.
 \Cl,0,0.15229845,2.69917624,0.\H,0,1.66733836,0.40871212,0.\H,0,2.2358
 7222,-1.02825416,0.87405369\H,0,2.23587222,-1.02825416,-0.87405369\H,0
 ,-0.74075882,-3.15391694,0.\H,0,0.80692468,-3.15513675,-0.87465894\C,0
 ,1.68303732,-0.67486708,0.\C,0,0.31372577,-1.27643452,0.\S,0,-1.054331
 03,-0.39114799,0.\C,0,0.27470062,-2.77308266,0.\H,0,0.80692468,-3.1551

 Normal termination of Gaussian 16 at Wed Apr  9 19:30:54 2025.
