 Gaussian 16, Revision C.01,

 ----------------------------------------------------------------------
 #t hf aug-cc-pvdz symm=none int=(grid=ultrafine) guess=(read,tcheck) s
 table=(opt,rrhf)
 ----------------------------------------------------------------------
 -----
 title
 -----
 Symbolic Z-matrix:
 Charge =  0 Multiplicity = 1

 SCF Done:  E(RHF) =  -875.464525602     A.U. after   11 cycles
 Normal termination of Gaussian 16 at Wed Apr  9 04:10:25 2025.
 Gaussian 16:  ES64L-G16RevC.01  3-Jul-2019

 ----------------------------------------------------------------------
 #t hf aug-cc-pvdz iop(5/13=1,5/36=2,99/5=2) pseudo=read geom=check gue
 ss=(read,tcheck) scf=(maxcycle=1)
 ----------------------------------------------------------------------
 -----
 title
 -----
 Structure from the checkpoint file:  "HB300SPXx10_1218_4.26_1.25_sulfane_dimethylsulfide_dimer_mol1.chk"
 Charge =  0 Multiplicity = 1

                         Standard orientation:
 ---------------------------------------------------------------------
 Center     Atomic      Atomic             Coordinates (Angstroms)
 Number     Number       Type             X           Y           Z
 ---------------------------------------------------------------------
      1          1           0        1.614990   -0.022304   -0.560246
      2          1           0        3.137275    1.177487   -0.347958
      3         16           0        2.828881   -0.069348    0.036584
      4          1           0       -2.270847   -1.399828    1.169124
      5          1           0       -0.493517   -1.348873    1.075473
      6          1           0       -1.422466   -2.297720   -0.100300
      7          1           0       -1.506073    2.297371   -0.022669
      8          1           0       -0.526655    1.344996    1.108236
      9          1           0       -2.306447    1.325506    1.222677
     10          6           0       -1.415116   -1.389539    0.497103
     11         16           0       -1.515942    0.009081   -0.648510
     12          6           0       -1.457100    1.370813    0.543976
 ---------------------------------------------------------------------

 SCF Done:  E(RHF) =  -875.679126686     A.U. after    2 cycles

 The electronic state is 1-A.
 Alpha  occ. eigenvalues --  -93.95969 -93.94389 -11.26486 -11.26453  -8.24037
 Alpha  occ. eigenvalues --   -8.22494  -6.21913  -6.21798  -6.21551  -6.20328
 Alpha  occ. eigenvalues --   -6.20170  -6.19944  -1.08911  -1.01342  -0.96279
 Alpha  occ. eigenvalues --   -0.83055  -0.61887  -0.61491  -0.59059  -0.59014
 Alpha  occ. eigenvalues --   -0.57653  -0.50856  -0.50453  -0.44772  -0.38790
 Alpha  occ. eigenvalues --   -0.34921
 Alpha virt. eigenvalues --    0.03534   0.03848   0.04326   0.05232   0.06701
 Alpha virt. eigenvalues --    0.07178   0.07670   0.08862   0.10672   0.11528
 Alpha virt. eigenvalues --    0.13191   0.13536   0.14257   0.15723   0.16163

 Mulliken charges:
               1
     1  H    0.311618
     2  H    0.248465
     3  S   -0.549498
     4  H    0.169515
     5  H    0.144964
     6  H    0.152016
     7  H    0.147531
     8  H    0.161540
     9  H    0.169794
    10  C   -0.642810
    11  S    0.330018
    12  C   -0.643153
 Sum of Mulliken charges =  -0.00000

 Dipole moment (field-independent basis, Debye):
    X=             -0.7203    Y=              0.7882    Z=              1.1785  Tot=              1.5903

 Test job not archived.
 1\1\GINC-SE292\SP\RHF\Aug-CC-pVDZ\C2H8S2\OHZDE\09-Apr-2025\0\\#t hf au
 g-cc-pvdz iop(5/13=1,5/36=2,99/5=2) pseudo=read geom=check guess=(read
 ,tcheck) scf=(maxcycle=1)\\title\\0,1\H,0,0.94021613,0.77457481,-0.419
 26695\H,0,0.91265107,2.63108631,-1.01468344\S,0,1.34625135,1.9701562,0
 .06824785\H,0,-1.24894681,-2.42044501,1.81399064\H,0,-0.23306281,-0.96
 270944,1.6988509\H,0,0.46312295,-2.56307641,1.38286314\H,0,-2.59239218
 ,-0.60270426,-1.43647131\H,0,-2.0088472,0.19513338,0.03599525\H,0,-3.0
 5716098,-1.24351616,0.14762454\C,0,-0.42741385,-1.94834432,1.27901568\

 Normal termination of Gaussian 16 at Wed Apr  9 04:10:28 2025.
