 Gaussian 16, Revision C.01,

 ----------------------------------------------------------------------
 #t hf aug-cc-pvdz symm=none int=(grid=ultrafine) guess=(read,tcheck) s
 table=(opt,rrhf)
 ----------------------------------------------------------------------
 -----
 title
 -----
 Symbolic Z-matrix:
 Charge =  0 Multiplicity = 1

 SCF Done:  E(RHF) =  -1121.33944798     A.U. after   13 cycles
 Normal termination of Gaussian 16 at Wed Apr  9 19:26:23 2025.
 Gaussian 16:  ES64L-G16RevC.01  3-Jul-2019

 ----------------------------------------------------------------------
 #t hf aug-cc-pvdz iop(5/13=1,5/36=2,99/5=2) pseudo=read geom=check gue
 ss=(read,tcheck) scf=(maxcycle=1)
 ----------------------------------------------------------------------
 -----
 title
 -----
 Structure from the checkpoint file:  "HB300SPXx10_1093_4.13_0.90_Nmethylacetamide_dimethyldisulfide_dimer_mol1.chk"
 Charge =  0 Multiplicity = 1

                         Standard orientation:
 ---------------------------------------------------------------------
 Center     Atomic      Atomic             Coordinates (Angstroms)
 Number     Number       Type             X           Y           Z
 ---------------------------------------------------------------------
      1          6           0       -1.657202    1.679252   -0.759210
      2          1           0       -0.996330    1.507775   -1.608921
      3          1           0       -1.084547    2.143854    0.041176
      4          1           0       -2.449347    2.350162   -1.080089
      5          6           0       -2.271146    0.353270   -0.354770
      6          8           0       -3.186984   -0.148536   -0.984273
      7          7           0       -1.719528   -0.224706    0.744274
      8          1           0       -0.886902    0.190926    1.128155
      9          6           0       -2.078191   -1.559138    1.177614
     10          1           0       -3.084850   -1.773052    0.832314
     11          1           0       -1.401845   -2.311005    0.765388
     12          1           0       -2.048837   -1.617105    2.264025
     13          1           0        2.668134   -2.176731   -1.752072
     14          1           0        3.260723   -1.919812   -0.096500
     15          1           0        3.434188   -0.636386   -1.324289
     16          1           0        1.094138    2.320451   -0.468525
     17          1           0        2.830342    1.928498   -0.356795
     18          1           0        2.019262    2.753297    0.987117
     19          6           0        2.804864   -1.442927   -0.958930
     20         16           0        1.138862   -0.837854   -0.545210
     21         16           0        1.486016    0.445246    1.016487
     22          6           0        1.898406    2.016558    0.194106
 ---------------------------------------------------------------------

 SCF Done:  E(RHF) =  -1121.80876206     A.U. after    2 cycles

 The electronic state is 1-A.
 Alpha  occ. eigenvalues --  -93.98524 -93.98068 -20.48714 -15.50459 -11.33947
 Alpha  occ. eigenvalues --  -11.28370 -11.27985 -11.25125 -11.23534  -8.26521
 Alpha  occ. eigenvalues --   -8.26067  -6.24328  -6.24119  -6.23913  -6.23869
 Alpha  occ. eigenvalues --   -6.23657  -6.23427  -1.43724  -1.22424  -1.13440
 Alpha  occ. eigenvalues --   -1.04054  -1.01325  -0.93590  -0.93138  -0.82538
 Alpha  occ. eigenvalues --   -0.80489  -0.69504  -0.66033  -0.63796  -0.63284
 Alpha  occ. eigenvalues --   -0.62266  -0.61731  -0.60050  -0.58433  -0.57384
 Alpha  occ. eigenvalues --   -0.55984  -0.55329  -0.54304  -0.51538  -0.49967
 Alpha  occ. eigenvalues --   -0.46298  -0.40736  -0.39676  -0.38414  -0.37165
 Alpha virt. eigenvalues --    0.02789   0.03103   0.03749   0.04253   0.05261
 Alpha virt. eigenvalues --    0.05528   0.05934   0.06701   0.07186   0.08052
 Alpha virt. eigenvalues --    0.08367   0.08707   0.09013   0.10767   0.11182

 Mulliken charges:
               1
     1  C   -0.417239
     2  H    0.278781
     3  H    0.201232
     4  H    0.129887
     5  C    0.430530
     6  O   -1.392077
     7  N    0.934856
     8  H    0.152979
     9  C   -0.396603
    10  H    0.052324
    11  H    0.178413
    12  H    0.107687
    13  H    0.169778
    14  H    0.205645
    15  H    0.176348
    16  H    0.068265
    17  H    0.127691
    18  H    0.226736
    19  C   -0.854294
    20  S    0.366510
    21  S   -0.089192
    22  C   -0.658259
 Sum of Mulliken charges =  -0.00000

 Dipole moment (field-independent basis, Debye):
    X=              5.5845    Y=              1.5032    Z=              0.8682  Tot=              5.8480

 Test job not archived.
 1\1\GINC-SE229\SP\RHF\Aug-CC-pVDZ\C5H13N1O1S2\OHZDE\09-Apr-2025\0\\#t
 hf aug-cc-pvdz iop(5/13=1,5/36=2,99/5=2) pseudo=read geom=check guess=
 (read,tcheck) scf=(maxcycle=1)\\title\\0,1\C,0,-1.31055971,-0.36190707
 ,2.17525478\H,0,-0.76310857,0.57466921,2.28149083\H,0,-0.59510431,-1.1
 7658722,2.08130356\H,0,-1.91110445,-0.50300543,3.06969011\C,0,-2.23351
 851,-0.24400233,0.97818704\O,0,-3.28055753,0.37845097,1.03390772\N,0,-
 1.80028089,-0.8717422,-0.1463058\H,0,-0.86873727,-1.25332097,-0.144399
 63\C,0,-2.47826303,-0.73306099,-1.41840567\H,0,-3.52176476,-0.50262299

 Normal termination of Gaussian 16 at Wed Apr  9 19:26:36 2025.
