 Gaussian 16, Revision C.01,

 ----------------------------------------------------------------------
 #t hf aug-cc-pvdz symm=none int=(grid=ultrafine) guess=(read,tcheck) s
 table=(opt,rrhf)
 ----------------------------------------------------------------------
 -----
 title
 -----
 Symbolic Z-matrix:
 Charge =  0 Multiplicity = 1

 SCF Done:  E(RHF) =  -858.792354138     A.U. after   11 cycles

 1\1\GINC-SE045\Stability\RHF\Aug-CC-pVDZ\Cl1H3S1\OHZDE\09-Apr-2025\0\\
 #t hf aug-cc-pvdz symm=none int=(grid=ultrafine) guess=(read,tcheck) s
 table=(opt,rrhf)\\title\\0,1\H,0,-0.07574771,0.51696812,0.\Cl,0,0.0020
 5903,1.81286821,0.\H,0,0.87050276,-1.93087184,0.97032462\H,0,0.8705027
 6,-1.93087184,-0.97032462\S,0,-0.05474435,-1.87735641,0.\\Version=ES64
 L-G16RevC.01\HF=-858.7923541\RMSD=3.194e-09\Dipole=0.4274991,-0.866825
 8,0.\Quadrupole=0.5129892,-1.9764073,1.4634181,-1.8248301,0.,0.\PG=Unk
 nown\\@

 Normal termination of Gaussian 16 at Wed Apr  9 19:30:42 2025.
 Gaussian 16:  ES64L-G16RevC.01  3-Jul-2019

 ----------------------------------------------------------------------
 #t hf aug-cc-pvdz iop(5/13=1,5/36=2,99/5=2) pseudo=read geom=check gue
 ss=(read,tcheck) scf=(maxcycle=1)
 ----------------------------------------------------------------------
 -----
 title
 -----
 Structure from the checkpoint file:  "HB300SPXx10_1355_4.40_1.00_hydrogenchloride_sulfane_dimer_mol1.chk"
 Charge =  0 Multiplicity = 1

                         Standard orientation:
 ---------------------------------------------------------------------
 Center     Atomic      Atomic             Coordinates (Angstroms)
 Number     Number       Type             X           Y           Z
 ---------------------------------------------------------------------
      1          1           0       -0.107687    0.586595    0.000000
      2         17           0       -0.049835    1.883539    0.000000
      3          1           0        0.876126   -1.846392    0.970325
      4          1           0        0.876126   -1.846392   -0.970325
      5         16           0       -0.049835   -1.807123   -0.000000
 ---------------------------------------------------------------------

 SCF Done:  E(RHF) =  -858.934094961     A.U. after    2 cycles

 The electronic state is 1-A'.
 Alpha  occ. eigenvalues -- -105.56322 -93.98779 -10.61105  -8.26871  -7.78081
 Alpha  occ. eigenvalues --   -7.77709  -7.77708  -6.24734  -6.24620  -6.24390
 Alpha  occ. eigenvalues --   -1.05692  -1.04101  -0.61927  -0.61778  -0.53151
 Alpha  occ. eigenvalues --   -0.46888  -0.46877  -0.41678
 Alpha virt. eigenvalues --    0.03050   0.05482   0.06515   0.09862   0.10419
 Alpha virt. eigenvalues --    0.12820   0.15568   0.15630   0.16031   0.16788
 Alpha virt. eigenvalues --    0.19119   0.20839   0.25159   0.26425   0.26725

 Mulliken charges:
               1
     1  H    0.258298
     2  Cl  -0.182865
     3  H    0.308293
     4  H    0.308293
     5  S   -0.692019
 Sum of Mulliken charges =  -0.00000

 Dipole moment (field-independent basis, Debye):
    X=              1.1700    Y=             -2.2178    Z=             -0.0000  Tot=              2.5075

 Test job not archived.
 1\1\GINC-SE045\SP\RHF\Aug-CC-pVDZ\Cl1H3S1\OHZDE\09-Apr-2025\0\\#t hf a
 ug-cc-pvdz iop(5/13=1,5/36=2,99/5=2) pseudo=read geom=check guess=(rea
 d,tcheck) scf=(maxcycle=1)\\title\\0,1\H,0,-0.07574771,0.51696812,0.\C
 l,0,0.00205903,1.81286821,0.\H,0,0.87050276,-1.93087184,0.97032462\H,0
 ,0.87050276,-1.93087184,-0.97032462\S,0,-0.05474435,-1.87735641,0.\\Ve
 rsion=ES64L-G16RevC.01\State=1-A'\HF=-858.934095\RMSD=4.597e-03\Dipole
 =0.4468418,-0.8795398,0.\Quadrupole=0.5630632,-2.1290156,1.5659524,-1.
 7989913,0.,0.\PG=CS [SG(Cl1H1S1),X(H2)]\\@

 Normal termination of Gaussian 16 at Wed Apr  9 19:30:43 2025.
