 Gaussian 16, Revision C.01,

 ----------------------------------------------------------------------
 #t hf aug-cc-pvdz symm=none int=(grid=ultrafine) guess=(read,tcheck) s
 table=(opt,rrhf)
 ----------------------------------------------------------------------
 -----
 title
 -----
 Symbolic Z-matrix:
 Charge =  0 Multiplicity = 1

 SCF Done:  E(RHF) =  -571.988350988     A.U. after   12 cycles
 Normal termination of Gaussian 16 at Wed Apr  9 19:30:01 2025.
 Gaussian 16:  ES64L-G16RevC.01  3-Jul-2019

 ----------------------------------------------------------------------
 #t hf aug-cc-pvdz iop(5/13=1,5/36=2,99/5=2) pseudo=read geom=check gue
 ss=(read,tcheck) scf=(maxcycle=1)
 ----------------------------------------------------------------------
 -----
 title
 -----
 Structure from the checkpoint file:  "HB300SPXx10_134_1.14_0.95_sulfane_trimethylamine_dimer_mol1.chk"
 Charge =  0 Multiplicity = 1

                         Standard orientation:
 ---------------------------------------------------------------------
 Center     Atomic      Atomic             Coordinates (Angstroms)
 Number     Number       Type             X           Y           Z
 ---------------------------------------------------------------------
      1          1           0       -1.004444    0.038341    0.000000
      2          1           0       -2.629715   -1.071125    0.000000
      3         16           0       -2.360039    0.242080    0.000000
      4          1           0        2.371837   -0.828267    1.303193
      5          1           0        0.876956   -0.268217    2.080506
      6          1           0        0.888406   -1.796089    1.197590
      7          1           0        0.888406   -1.796089   -1.197590
      8          1           0        2.371837   -0.828267   -1.303193
      9          1           0        0.876956   -0.268217   -2.080506
     10          1           0        2.371624    1.416782    0.000000
     11          1           0        0.882832    1.808992   -0.882789
     12          6           0        1.276645   -0.778753    1.205875
     13          7           0        0.857640   -0.084274    0.000000
     14          6           0        1.276645   -0.778753   -1.205875
     15          6           0        1.276645    1.307473    0.000000
     16          1           0        0.882832    1.808992    0.882789
 ---------------------------------------------------------------------

 SCF Done:  E(RHF) =  -572.244159439     A.U. after    2 cycles

 The electronic state is 1-A'.
 Alpha  occ. eigenvalues --  -93.92504 -15.50433 -11.26192 -11.26188 -11.26172
 Alpha  occ. eigenvalues --   -8.20671  -6.18552  -6.18428  -6.18211  -1.24204
 Alpha  occ. eigenvalues --   -0.98497  -0.97443  -0.97437  -0.83551  -0.68558
 Alpha  occ. eigenvalues --   -0.66741  -0.66716  -0.57053  -0.56919  -0.56168
 Alpha  occ. eigenvalues --   -0.54061  -0.53569  -0.53563  -0.48436  -0.39130
 Alpha  occ. eigenvalues --   -0.36146
 Alpha virt. eigenvalues --    0.03387   0.04304   0.04550   0.04743   0.05912
 Alpha virt. eigenvalues --    0.06146   0.06274   0.06940   0.07160   0.09898
 Alpha virt. eigenvalues --    0.10238   0.12431   0.13718   0.14624   0.14798

 Mulliken charges:
               1
     1  H    0.548610
     2  H    0.189954
     3  S   -0.592491
     4  H    0.200208
     5  H    0.112481
     6  H    0.111327
     7  H    0.111327
     8  H    0.200208
     9  H    0.112481
    10  H    0.178298
    11  H    0.114294
    12  C   -0.332445
    13  N   -0.390272
    14  C   -0.332445
    15  C   -0.345829
    16  H    0.114294
 Sum of Mulliken charges =  -0.00000

 Dipole moment (field-independent basis, Debye):
    X=              2.9995    Y=             -1.0080    Z=              0.0000  Tot=              3.1644

 Test job not archived.
 1\1\GINC-SE340\SP\RHF\Aug-CC-pVDZ\C3H11N1S1\OHZDE\09-Apr-2025\0\\#t hf
  aug-cc-pvdz iop(5/13=1,5/36=2,99/5=2) pseudo=read geom=check guess=(r
 ead,tcheck) scf=(maxcycle=1)\\title\\0,1\H,0,0.06719299,0.97177334,0.\
 H,0,1.32304535,2.48678341,0.\S,0,-0.00955285,2.34044335,0.\H,0,0.61595
 079,-2.47048536,-1.30319342\H,0,0.19739685,-0.92998642,-2.08050641\H,0
 ,1.7175781,-1.08352334,-1.19759028\H,0,1.7175781,-1.08352334,1.1975902
 8\H,0,0.61595079,-2.47048536,1.30319342\H,0,0.19739685,-0.92998642,2.0
 8050641\H,0,-1.61934269,-2.26141893,0.\H,0,-1.87135073,-0.74259657,0.8

 Normal termination of Gaussian 16 at Wed Apr  9 19:30:04 2025.
