 Gaussian 16, Revision C.01,

 ----------------------------------------------------------------------
 #t hf aug-cc-pvdz symm=none int=(grid=ultrafine) guess=(read,tcheck) s
 table=(opt,rrhf)
 ----------------------------------------------------------------------
 -----
 title
 -----
 Symbolic Z-matrix:
 Charge =  0 Multiplicity = 1

 SCF Done:  E(RHF) =  -991.413441571     A.U. after   12 cycles

 1\1\GINC-SE127\Stability\RHF\Aug-CC-pVDZ\C5H12S2\OHZDE\09-Apr-2025\0\\
 #t hf aug-cc-pvdz symm=none int=(grid=ultrafine) guess=(read,tcheck) s
 table=(opt,rrhf)\\title\\0,1\H,0,2.75511322,-2.75302781,-0.03281769\H,
 0,2.23328443,-3.6609344,1.39160682\H,0,2.88304587,-2.02859561,1.588775
 53\H,0,0.87227038,-0.86572365,0.25189781\C,0,2.28978938,-2.67174858,0.
 94522466\S,0,0.57786237,-2.06107277,0.80693494\H,0,-0.70040657,-0.1655
 5322,-1.80854742\H,0,-0.7953198,1.30496844,-2.78790251\H,0,-2.93791312
 ,0.63901373,-1.32728334\H,0,-0.65143445,3.00781223,0.80552069\H,0,-2.3

 Normal termination of Gaussian 16 at Wed Apr  9 04:11:16 2025.
 Gaussian 16:  ES64L-G16RevC.01  3-Jul-2019

 ----------------------------------------------------------------------
 #t hf aug-cc-pvdz iop(5/13=1,5/36=2,99/5=2) pseudo=read geom=check gue
 ss=(read,tcheck) scf=(maxcycle=1)
 ----------------------------------------------------------------------
 -----
 title
 -----
 Structure from the checkpoint file:  "HB300SPXx10_1207_4.25_1.10_methanethiol_tetrahydrothiophene_dimer_mol1.chk"
 Charge =  0 Multiplicity = 1

                         Standard orientation:
 ---------------------------------------------------------------------
 Center     Atomic      Atomic             Coordinates (Angstroms)
 Number     Number       Type             X           Y           Z
 ---------------------------------------------------------------------
      1          1           0        3.757028    1.183867   -0.821515
      2          1           0        4.659836   -0.117483   -0.036016
      3          1           0        3.741403    1.025280    0.951996
      4          1           0        1.369629    0.255345   -0.030155
      5          6           0        3.756565    0.484956    0.009883
      6         16           0        2.350687   -0.669501   -0.106224
      7          1           0       -0.630727   -0.081025   -1.789251
      8          1           0       -2.162267    0.772154   -2.028095
      9          1           0       -2.268919   -1.815995   -1.351545
     10          1           0       -2.346371    0.341996    1.923378
     11          1           0       -3.328028   -0.691177   -0.503259
     12          1           0       -0.602298    0.084676    2.070083
     13          1           0       -2.141020   -1.966161    1.247210
     14          1           0       -0.599725   -1.671973    0.453906
     15         16           0       -1.149870    1.362507    0.085319
     16          6           0       -1.554864    0.232632   -1.306562
     17          6           0       -2.284747   -0.954475   -0.683760
     18          6           0       -1.586375   -1.248271    0.643003
     19          6           0       -1.440847    0.083891    1.378728
 ---------------------------------------------------------------------

 SCF Done:  E(RHF) =  -991.753662295     A.U. after    2 cycles

 The electronic state is 1-A.
 Alpha  occ. eigenvalues --  -93.94070 -93.93316 -11.26395 -11.26252 -11.26232
 Alpha  occ. eigenvalues --  -11.24096 -11.24027  -8.22160  -8.21434  -6.20023
 Alpha  occ. eigenvalues --   -6.19881  -6.19657  -6.19237  -6.19119  -6.18894
 Alpha  occ. eigenvalues --   -1.13935  -1.05457  -0.99113  -0.98540  -0.87990
 Alpha  occ. eigenvalues --   -0.80082  -0.79753  -0.66758  -0.65175  -0.61086
 Alpha  occ. eigenvalues --   -0.60865  -0.59438  -0.55904  -0.53006  -0.51591
 Alpha  occ. eigenvalues --   -0.50354  -0.48822  -0.48789  -0.46182  -0.43230
 Alpha  occ. eigenvalues --   -0.35819  -0.34179
 Alpha virt. eigenvalues --    0.03403   0.03719   0.03896   0.04245   0.05298
 Alpha virt. eigenvalues --    0.05741   0.06074   0.06603   0.07966   0.08253
 Alpha virt. eigenvalues --    0.08511   0.09390   0.11679   0.13071   0.13400

 Mulliken charges:
               1
     1  H    0.147947
     2  H    0.144075
     3  H    0.143940
     4  H    0.431160
     5  C   -0.797085
     6  S   -0.092143
     7  H    0.119380
     8  H    0.153609
     9  H    0.134282
    10  H    0.134320
    11  H    0.102488
    12  H    0.128355
    13  H    0.152896
    14  H    0.086508
    15  S    0.362815
    16  C   -0.397051
    17  C   -0.303036
    18  C   -0.221752
    19  C   -0.430708
 Sum of Mulliken charges =  -0.00000

 Dipole moment (field-independent basis, Debye):
    X=             -0.3557    Y=             -0.5041    Z=              0.0721  Tot=              0.6212

 Test job not archived.
 1\1\GINC-SE127\SP\RHF\Aug-CC-pVDZ\C5H12S2\OHZDE\09-Apr-2025\0\\#t hf a
 ug-cc-pvdz iop(5/13=1,5/36=2,99/5=2) pseudo=read geom=check guess=(rea
 d,tcheck) scf=(maxcycle=1)\\title\\0,1\H,0,2.75511322,-2.75302781,-0.0
 3281769\H,0,2.23328443,-3.6609344,1.39160682\H,0,2.88304587,-2.0285956
 1,1.58877553\H,0,0.87227038,-0.86572365,0.25189781\C,0,2.28978938,-2.6
 7174858,0.94522466\S,0,0.57786237,-2.06107277,0.80693494\H,0,-0.700406
 57,-0.16555322,-1.80854742\H,0,-0.7953198,1.30496844,-2.78790251\H,0,-
 2.93791312,0.63901373,-1.32728334\H,0,-0.65143445,3.00781223,0.8055206

 Normal termination of Gaussian 16 at Wed Apr  9 04:11:24 2025.
