 Gaussian 16, Revision C.01,

 ----------------------------------------------------------------------
 #t hf aug-cc-pvdz symm=none int=(grid=ultrafine) guess=(read,tcheck) s
 table=(opt,rrhf)
 ----------------------------------------------------------------------
 -----
 title
 -----
 Symbolic Z-matrix:
 Charge =  0 Multiplicity = 1

 SCF Done:  E(RHF) =  -991.395657461     A.U. after   13 cycles

 1\1\GINC-SE016\Stability\RHF\Aug-CC-pVDZ\C5H12S2\OHZDE\09-Apr-2025\0\\
 #t hf aug-cc-pvdz symm=none int=(grid=ultrafine) guess=(read,tcheck) s
 table=(opt,rrhf)\\title\\0,1\H,0,2.75511322,-2.75302781,-0.03281769\H,
 0,2.23328443,-3.6609344,1.39160682\H,0,2.88304587,-2.02859561,1.588775
 53\H,0,0.87227038,-0.86572365,0.25189781\C,0,2.28978938,-2.67174858,0.
 94522466\S,0,0.57786237,-2.06107277,0.80693494\H,0,-0.61050803,-0.8532
 6693,-1.51994408\H,0,-0.70542126,0.61725474,-2.49929917\H,0,-2.8480145
 8,-0.04869998,-1.03868\H,0,-0.56153591,2.32009852,1.09412403\H,0,-2.30

 Normal termination of Gaussian 16 at Wed Apr  9 19:29:39 2025.
 Gaussian 16:  ES64L-G16RevC.01  3-Jul-2019

 ----------------------------------------------------------------------
 #t hf aug-cc-pvdz iop(5/13=1,5/36=2,99/5=2) pseudo=read geom=check gue
 ss=(read,tcheck) scf=(maxcycle=1)
 ----------------------------------------------------------------------
 -----
 title
 -----
 Structure from the checkpoint file:  "HB300SPXx10_1201_4.25_0.80_methanethiol_tetrahydrothiophene_dimer_mol1.chk"
 Charge =  0 Multiplicity = 1

                         Standard orientation:
 ---------------------------------------------------------------------
 Center     Atomic      Atomic             Coordinates (Angstroms)
 Number     Number       Type             X           Y           Z
 ---------------------------------------------------------------------
      1          1           0        3.435900    1.037380   -0.792874
      2          1           0        4.194819   -0.399366   -0.096175
      3          1           0        3.426922    0.783856    0.969619
      4          1           0        0.969229    0.343345   -0.004253
      5          6           0        3.367088    0.298176   -0.000068
      6         16           0        1.836941   -0.681183   -0.149230
      7          1           0       -0.433156   -0.042009   -1.799533
      8          1           0       -1.860263    0.991260   -1.961700
      9          1           0       -2.252747   -1.601488   -1.422047
     10          1           0       -2.037348    0.367125    1.964133
     11          1           0       -3.164379   -0.412393   -0.493878
     12          1           0       -0.332268   -0.094062    2.061793
     13          1           0       -2.106711   -1.908527    1.161910
     14          1           0       -0.553074   -1.747682    0.354563
     15         16           0       -0.757692    1.345313    0.159376
     16          6           0       -1.308558    0.347295   -1.282316
     17          6           0       -2.160663   -0.781948   -0.709111
     18          6           0       -1.482075   -1.225904    0.585787
     19          6           0       -1.174945    0.038463    1.388391
 ---------------------------------------------------------------------

 SCF Done:  E(RHF) =  -991.738319657     A.U. after    2 cycles

 The electronic state is 1-A.
 Alpha  occ. eigenvalues --  -93.93986 -93.91850 -11.26626 -11.26530 -11.25482
 Alpha  occ. eigenvalues --  -11.24295 -11.24050  -8.22193  -8.20121  -6.19974
 Alpha  occ. eigenvalues --   -6.19861  -6.19675  -6.17982  -6.17838  -6.17628
 Alpha  occ. eigenvalues --   -1.14614  -1.04466  -0.99464  -0.99254  -0.87333
 Alpha  occ. eigenvalues --   -0.80379  -0.80224  -0.67306  -0.65548  -0.61298
 Alpha  occ. eigenvalues --   -0.60624  -0.58559  -0.56652  -0.52119  -0.51769
 Alpha  occ. eigenvalues --   -0.50578  -0.49383  -0.49049  -0.45412  -0.43795
 Alpha  occ. eigenvalues --   -0.34629  -0.33740
 Alpha virt. eigenvalues --    0.03376   0.03728   0.03816   0.04104   0.05505
 Alpha virt. eigenvalues --    0.05801   0.06127   0.06550   0.07844   0.08508
 Alpha virt. eigenvalues --    0.08814   0.09753   0.12387   0.12624   0.13672

 Mulliken charges:
               1
     1  H    0.127560
     2  H    0.123214
     3  H    0.120753
     4  H    0.821342
     5  C   -0.844091
     6  S   -0.212400
     7  H    0.111008
     8  H    0.135339
     9  H    0.118345
    10  H    0.098219
    11  H    0.106451
    12  H    0.137744
    13  H    0.139856
    14  H    0.168065
    15  S    0.077949
    16  C   -0.325262
    17  C   -0.305427
    18  C   -0.201995
    19  C   -0.396670
 Sum of Mulliken charges =  -0.00000

 Dipole moment (field-independent basis, Debye):
    X=             -1.0674    Y=             -0.1808    Z=              0.1094  Tot=              1.0881

 Test job not archived.
 1\1\GINC-SE016\SP\RHF\Aug-CC-pVDZ\C5H12S2\OHZDE\09-Apr-2025\0\\#t hf a
 ug-cc-pvdz iop(5/13=1,5/36=2,99/5=2) pseudo=read geom=check guess=(rea
 d,tcheck) scf=(maxcycle=1)\\title\\0,1\H,0,2.75511322,-2.75302781,-0.0
 3281769\H,0,2.23328443,-3.6609344,1.39160682\H,0,2.88304587,-2.0285956
 1,1.58877553\H,0,0.87227038,-0.86572365,0.25189781\C,0,2.28978938,-2.6
 7174858,0.94522466\S,0,0.57786237,-2.06107277,0.80693494\H,0,-0.610508
 03,-0.85326693,-1.51994408\H,0,-0.70542126,0.61725474,-2.49929917\H,0,
 -2.84801458,-0.04869998,-1.03868\H,0,-0.56153591,2.32009852,1.09412403

 Normal termination of Gaussian 16 at Wed Apr  9 19:29:48 2025.
