 Gaussian 16, Revision C.01,

 ----------------------------------------------------------------------
 #t hf aug-cc-pvdz symm=none int=(grid=ultrafine) guess=(read,tcheck) s
 table=(opt,rrhf)
 ----------------------------------------------------------------------
 -----
 title
 -----
 Symbolic Z-matrix:
 Charge =  0 Multiplicity = 1

 SCF Done:  E(RHF) =  -1312.02135016     A.U. after   13 cycles

 1\1\GINC-SE173\Stability\RHF\Aug-CC-pVDZ\C3H10S3\OHZDE\09-Apr-2025\0\\
 #t hf aug-cc-pvdz symm=none int=(grid=ultrafine) guess=(read,tcheck) s
 table=(opt,rrhf)\\title\\0,1\H,0,1.01554051,-2.06430295,-0.26345232\H,
 0,1.41221348,-3.50790796,0.68330627\H,0,2.28776701,-1.9997821,0.978385
 09\H,0,0.09227498,-0.7095981,1.83267489\C,0,1.324424,-2.42503809,0.712
 77693\S,0,0.06941485,-2.04508424,1.97921636\H,0,-2.73663534,0.30200553
 ,0.77735021\H,0,-1.68604689,-1.02518952,0.24143299\H,0,-2.31252896,0.1
 6721849,-0.93919208\H,0,0.50381256,2.52028842,-2.19468115\H,0,-0.51090

 Normal termination of Gaussian 16 at Wed Apr  9 19:28:18 2025.
 Gaussian 16:  ES64L-G16RevC.01  3-Jul-2019

 ----------------------------------------------------------------------
 #t hf aug-cc-pvdz iop(5/13=1,5/36=2,99/5=2) pseudo=read geom=check gue
 ss=(read,tcheck) scf=(maxcycle=1)
 ----------------------------------------------------------------------
 -----
 title
 -----
 Structure from the checkpoint file:  "HB300SPXx10_1172_4.22_0.85_methanethiol_dimethyldisulfide_dimer_mol1.chk"
 Charge =  0 Multiplicity = 1

                         Standard orientation:
 ---------------------------------------------------------------------
 Center     Atomic      Atomic             Coordinates (Angstroms)
 Number     Number       Type             X           Y           Z
 ---------------------------------------------------------------------
      1          1           0        1.154818   -1.553215    0.835627
      2          1           0        2.877960   -1.959166    0.896304
      3          1           0        1.996174   -2.110791   -0.629334
      4          1           0        1.505891    0.525274   -0.788573
      5          6           0        2.089378   -1.530178    0.283695
      6         16           0        2.594473    0.183508   -0.078851
      7          1           0       -0.082969    2.830604    0.728253
      8          1           0        0.593834    1.292921    1.302586
      9          1           0       -1.109777    1.720059    1.653947
     10          1           0       -3.563964   -0.461928   -0.410240
     11          1           0       -3.019068   -0.263450    1.276849
     12          1           0       -3.195675   -1.887086    0.586070
     13          6           0       -0.301500    1.782774    0.930978
     14         16           0       -0.801264    1.057983   -0.662226
     15         16           0       -1.190752   -0.898810   -0.194322
     16          6           0       -2.920636   -0.855283    0.371143
 ---------------------------------------------------------------------

 SCF Done:  E(RHF) =  -1312.34212889     A.U. after    2 cycles

 The electronic state is 1-A.
 Alpha  occ. eigenvalues --  -93.97458 -93.97332 -93.93089 -11.27525 -11.26785
 Alpha  occ. eigenvalues --  -11.25441  -8.25464  -8.25377  -8.21249  -6.23275
 Alpha  occ. eigenvalues --   -6.23178  -6.23051  -6.22975  -6.22849  -6.22748
 Alpha  occ. eigenvalues --   -6.19110  -6.18970  -6.18750  -1.12644  -1.05017
 Alpha  occ. eigenvalues --   -1.03052  -0.92511  -0.87439  -0.81530  -0.62927
 Alpha  occ. eigenvalues --   -0.62174  -0.61132  -0.59853  -0.59097  -0.58520
 Alpha  occ. eigenvalues --   -0.54698  -0.52512  -0.50422  -0.46060  -0.45360
 Alpha  occ. eigenvalues --   -0.37153  -0.36073  -0.35085
 Alpha virt. eigenvalues --    0.03161   0.03702   0.04175   0.04831   0.05765
 Alpha virt. eigenvalues --    0.06227   0.06934   0.07518   0.07877   0.09185
 Alpha virt. eigenvalues --    0.09905   0.11591   0.12647   0.13105   0.13707

 Mulliken charges:
               1
     1  H    0.175505
     2  H    0.112990
     3  H    0.129181
     4  H    0.570595
     5  C   -0.604016
     6  S   -0.269947
     7  H    0.196070
     8  H    0.147535
     9  H    0.152152
    10  H    0.219835
    11  H    0.181889
    12  H    0.169052
    13  C   -0.527452
    14  S   -0.076557
    15  S    0.234172
    16  C   -0.811002
 Sum of Mulliken charges =  -0.00000

 Dipole moment (field-independent basis, Debye):
    X=             -2.7497    Y=             -0.4783    Z=              1.8080  Tot=              3.3254

 Test job not archived.
 1\1\GINC-SE173\SP\RHF\Aug-CC-pVDZ\C3H10S3\OHZDE\09-Apr-2025\0\\#t hf a
 ug-cc-pvdz iop(5/13=1,5/36=2,99/5=2) pseudo=read geom=check guess=(rea
 d,tcheck) scf=(maxcycle=1)\\title\\0,1\H,0,1.01554051,-2.06430295,-0.2
 6345232\H,0,1.41221348,-3.50790796,0.68330627\H,0,2.28776701,-1.999782
 1,0.97838509\H,0,0.09227498,-0.7095981,1.83267489\C,0,1.324424,-2.4250
 3809,0.71277693\S,0,0.06941485,-2.04508424,1.97921636\H,0,-2.73663534,
 0.30200553,0.77735021\H,0,-1.68604689,-1.02518952,0.24143299\H,0,-2.31
 252896,0.16721849,-0.93919208\H,0,0.50381256,2.52028842,-2.19468115\H,

 Normal termination of Gaussian 16 at Wed Apr  9 19:28:24 2025.
