 Gaussian 16, Revision C.01,

 ----------------------------------------------------------------------
 #t hf aug-cc-pvdz symm=none int=(grid=ultrafine) guess=(read,tcheck) s
 table=(opt,rrhf)
 ----------------------------------------------------------------------
 -----
 title
 -----
 Symbolic Z-matrix:
 Charge =  0 Multiplicity = 1

 SCF Done:  E(RHF) =  -875.460965471     A.U. after   12 cycles
 Normal termination of Gaussian 16 at Wed Apr  9 04:10:28 2025.
 Gaussian 16:  ES64L-G16RevC.01  3-Jul-2019

 ----------------------------------------------------------------------
 #t hf aug-cc-pvdz iop(5/13=1,5/36=2,99/5=2) pseudo=read geom=check gue
 ss=(read,tcheck) scf=(maxcycle=1)
 ----------------------------------------------------------------------
 -----
 title
 -----
 Structure from the checkpoint file:  "HB300SPXx10_1197_4.24_1.10_methanethiol_methanethiol_dimer_mol1.chk"
 Charge =  0 Multiplicity = 1

                         Standard orientation:
 ---------------------------------------------------------------------
 Center     Atomic      Atomic             Coordinates (Angstroms)
 Number     Number       Type             X           Y           Z
 ---------------------------------------------------------------------
      1          1           0       -1.090029    0.910819    1.332083
      2          1           0       -2.851915    0.988595    1.235005
      3          1           0       -1.876480    1.843426    0.034475
      4          1           0       -0.859042   -0.377877   -1.005508
      5          6           0       -1.936228    0.951230    0.650961
      6         16           0       -2.034304   -0.550591   -0.374853
      7          1           0        2.406330   -0.474872    1.736927
      8          1           0        2.314839   -1.729832    0.496502
      9          1           0        0.821812   -0.992014    1.085230
     10          1           0        1.518235    1.453387    0.135116
     11          6           0        1.867245   -0.806604    0.854822
     12         16           0        2.036188    0.395004   -0.505431
 ---------------------------------------------------------------------

 SCF Done:  E(RHF) =  -875.675337831     A.U. after    2 cycles

 The electronic state is 1-A.
 Alpha  occ. eigenvalues --  -93.95559 -93.94597 -11.27250 -11.26968  -8.23639
 Alpha  occ. eigenvalues --   -8.22687  -6.21499  -6.21350  -6.21119  -6.20546
 Alpha  occ. eigenvalues --   -6.20403  -6.20171  -1.06830  -1.05986  -0.89093
 Alpha  occ. eigenvalues --   -0.88500  -0.62468  -0.61759  -0.60638  -0.59651
 Alpha  occ. eigenvalues --   -0.54213  -0.53442  -0.47381  -0.46742  -0.37132
 Alpha  occ. eigenvalues --   -0.36288
 Alpha virt. eigenvalues --    0.03170   0.03776   0.04509   0.04826   0.06893
 Alpha virt. eigenvalues --    0.07139   0.07283   0.09205   0.10425   0.12282
 Alpha virt. eigenvalues --    0.12618   0.12873   0.14597   0.14752   0.15059

 Mulliken charges:
               1
     1  H    0.153168
     2  H    0.139022
     3  H    0.144251
     4  H    0.391258
     5  C   -0.689024
     6  S   -0.129866
     7  H    0.127481
     8  H    0.176363
     9  H    0.132405
    10  H    0.345613
    11  C   -0.653571
    12  S   -0.137100
 Sum of Mulliken charges =  -0.00000

 Dipole moment (field-independent basis, Debye):
    X=              0.5155    Y=              0.9440    Z=              2.0194  Tot=              2.2880

 Test job not archived.
 1\1\GINC-SE106\SP\RHF\Aug-CC-pVDZ\C2H8S2\OHZDE\09-Apr-2025\0\\#t hf au
 g-cc-pvdz iop(5/13=1,5/36=2,99/5=2) pseudo=read geom=check guess=(read
 ,tcheck) scf=(maxcycle=1)\\title\\0,1\H,0,1.48841111,-0.83932977,-0.94
 699875\H,0,2.60301323,-1.84400864,-0.01533608\H,0,2.55978836,-0.100175
 65,0.26866848\H,0,0.07877426,-0.11956038,1.21477831\C,0,1.95766928,-0.
 9705586,0.02469451\S,0,0.71991769,-1.29709475,1.32035013\H,0,-1.673162
 47,0.35657659,-2.64488769\H,0,-2.74306172,0.28891424,-1.24036396\H,0,-
 1.195403,-0.56062437,-1.18429499\H,0,0.21318668,1.75038464,-1.39122134

 Normal termination of Gaussian 16 at Wed Apr  9 04:10:31 2025.
