 Gaussian 16, Revision C.01,

 ----------------------------------------------------------------------
 #t hf aug-cc-pvdz symm=none int=(grid=ultrafine) guess=(read,tcheck) s
 table=(opt,rrhf)
 ----------------------------------------------------------------------
 -----
 title
 -----
 Symbolic Z-matrix:
 Charge =  0 Multiplicity = 1

 SCF Done:  E(RHF) =  -493.929805821     A.U. after   11 cycles
 Normal termination of Gaussian 16 at Wed Apr  9 19:21:38 2025.
 Gaussian 16:  ES64L-G16RevC.01  3-Jul-2019

 ----------------------------------------------------------------------
 #t hf aug-cc-pvdz iop(5/13=1,5/36=2,99/5=2) pseudo=read geom=check gue
 ss=(read,tcheck) scf=(maxcycle=1)
 ----------------------------------------------------------------------
 -----
 title
 -----
 Structure from the checkpoint file:  "HB300SPXx10_100_1.10_2.00_sulfane_methylamine_dimer_mol1.chk"
 Charge =  0 Multiplicity = 1

                         Standard orientation:
 ---------------------------------------------------------------------
 Center     Atomic      Atomic             Coordinates (Angstroms)
 Number     Number       Type             X           Y           Z
 ---------------------------------------------------------------------
      1          1           0        0.000000    1.600530    0.000000
      2          1           0        0.417703    3.517568    0.000000
      3         16           0       -0.695246    2.770220    0.000000
      4          7           0        1.249423   -2.364320    0.000000
      5          1           0        1.789216   -2.624382    0.814449
      6          1           0        1.789216   -2.624382   -0.814449
      7          6           0       -0.059886   -3.021169    0.000000
      8          1           0       -0.619222   -2.700466   -0.877538
      9          1           0       -0.020404   -4.114672    0.000000
     10          1           0       -0.619222   -2.700466    0.877538
 ---------------------------------------------------------------------

 SCF Done:  E(RHF) =  -494.100516713     A.U. after    2 cycles

 The electronic state is 1-A'.
 Alpha  occ. eigenvalues --  -93.95864 -15.48514 -11.25397  -8.23911  -6.21784
 Alpha  occ. eigenvalues --   -6.21668  -6.21420  -1.17244  -1.01010  -0.90923
 Alpha  occ. eigenvalues --   -0.69696  -0.63141  -0.58935  -0.58412  -0.53560
 Alpha  occ. eigenvalues --   -0.50130  -0.42933  -0.38535
 Alpha virt. eigenvalues --    0.03193   0.04521   0.05105   0.05469   0.05921
 Alpha virt. eigenvalues --    0.07504   0.09256   0.11294   0.11594   0.12233
 Alpha virt. eigenvalues --    0.12556   0.15409   0.15546   0.16873   0.18993

 Mulliken charges:
               1
     1  H    0.273965
     2  H    0.264973
     3  S   -0.538159
     4  N    0.030484
     5  H    0.088598
     6  H    0.088598
     7  C   -0.463465
     8  H    0.080834
     9  H    0.093337
    10  H    0.080834
 Sum of Mulliken charges =   0.00000

 Dipole moment (field-independent basis, Debye):
    X=              1.3864    Y=             -1.8024    Z=              0.0000  Tot=              2.2740

 Test job not archived.
 1\1\GINC-SE115\SP\RHF\Aug-CC-pVDZ\C1H7N1S1\OHZDE\09-Apr-2025\0\\#t hf
 aug-cc-pvdz iop(5/13=1,5/36=2,99/5=2) pseudo=read geom=check guess=(re
 ad,tcheck) scf=(maxcycle=1)\\title\\0,1\H,0,0.41509073,0.4488286,0.\H,
 0,1.12809873,2.27670481,0.\S,0,-0.08823071,1.71303185,0.\N,0,1.0276404
 8,-3.66284745,0.\H,0,1.520001,-4.00429889,0.81444891\H,0,1.520001,-4.0
 0429889,-0.81444891\C,0,-0.36843744,-4.10636341,0.\H,0,-0.87059522,-3.
 70195667,-0.87753792\H,0,-0.50083318,-5.19253925,0.\H,0,-0.87059522,-3
 .70195667,0.87753792\\Version=ES64L-G16RevC.01\State=1-A'\HF=-494.1005

 Normal termination of Gaussian 16 at Wed Apr  9 19:21:40 2025.
