 Gaussian 16, Revision C.01,

 ----------------------------------------------------------------------
 #t hf aug-cc-pvdz symm=none int=(grid=ultrafine) guess=(read,tcheck) s
 table=(opt,rrhf)
 ----------------------------------------------------------------------
 -----
 title
 -----
 Symbolic Z-matrix:
 Charge =  0 Multiplicity = 1

 SCF Done:  E(RHF) =  -897.820686029     A.U. after   12 cycles
 Normal termination of Gaussian 16 at Wed Apr  9 19:29:43 2025.
 Gaussian 16:  ES64L-G16RevC.01  3-Jul-2019

 ----------------------------------------------------------------------
 #t hf aug-cc-pvdz iop(5/13=1,5/36=2,99/5=2) pseudo=read geom=check gue
 ss=(read,tcheck) scf=(maxcycle=1)
 ----------------------------------------------------------------------
 -----
 title
 -----
 Structure from the checkpoint file:  "HB300SPXx10_1333_4.38_0.90_hydrogenchloride_methanethiol_dimer_mol1.chk"
 Charge =  0 Multiplicity = 1

                         Standard orientation:
 ---------------------------------------------------------------------
 Center     Atomic      Atomic             Coordinates (Angstroms)
 Number     Number       Type             X           Y           Z
 ---------------------------------------------------------------------
      1          1           0       -0.768937   -0.402390   -0.090640
      2         17           0       -1.990708    0.059239    0.004338
      3          1           0        0.646040    1.587021    0.556252
      4          1           0        1.470938    1.489384   -1.005033
      5          1           0        2.418853    1.372138    0.484886
      6          1           0        1.267175   -0.933698    1.232097
      7          6           0        1.469729    1.126955    0.019123
      8         16           0        1.249350   -0.680078   -0.085378
 ---------------------------------------------------------------------

 SCF Done:  E(RHF) =  -898.008196883     A.U. after    2 cycles

 The electronic state is 1-A.
 Alpha  occ. eigenvalues -- -105.54681 -93.97718 -11.28665 -10.59549  -8.25882
 Alpha  occ. eigenvalues --   -7.76510  -7.76169  -7.76166  -6.23716  -6.23570
 Alpha  occ. eigenvalues --   -6.23388  -1.09205  -1.03983  -0.90977  -0.64197
 Alpha  occ. eigenvalues --   -0.63391  -0.59649  -0.55911  -0.49274  -0.45773
 Alpha  occ. eigenvalues --   -0.45748  -0.39115
 Alpha virt. eigenvalues --    0.03099   0.04125   0.05114   0.05811   0.07994
 Alpha virt. eigenvalues --    0.09930   0.11051   0.12695   0.13936   0.14436
 Alpha virt. eigenvalues --    0.15770   0.16427   0.17231   0.18156   0.19684

 Mulliken charges:
               1
     1  H    0.414126
     2  Cl  -0.241310
     3  H    0.113926
     4  H    0.199932
     5  H    0.125291
     6  H    0.392456
     7  C   -0.563438
     8  S   -0.440982
 Sum of Mulliken charges =  -0.00000

 Dipole moment (field-independent basis, Debye):
    X=              2.8261    Y=              0.8772    Z=              0.8275  Tot=              3.0726

 Test job not archived.
 1\1\GINC-SE028\SP\RHF\Aug-CC-pVDZ\C1H5Cl1S1\OHZDE\09-Apr-2025\0\\#t hf
  aug-cc-pvdz iop(5/13=1,5/36=2,99/5=2) pseudo=read geom=check guess=(r
 ead,tcheck) scf=(maxcycle=1)\\title\\0,1\H,0,-0.71323053,0.36081391,-0
 .38963987\Cl,0,-0.97574618,1.50432633,-0.9712843\H,0,1.63589532,0.6867
 3575,0.47855695\H,0,2.1610007,-0.71909448,-0.45712847\H,0,2.39325025,-
 0.70974569,1.29732939\H,0,-0.24038845,-0.6907244,1.81225903\C,0,1.7401
 4352,-0.39383358,0.49015012\S,0,0.11143945,-1.20286144,0.62300917\\Ver
 sion=ES64L-G16RevC.01\State=1-A\HF=-898.0081969\RMSD=5.141e-03\Dipole=

 Normal termination of Gaussian 16 at Wed Apr  9 19:29:45 2025.
