 Gaussian 16, Revision C.01,

 ----------------------------------------------------------------------
 #t hf aug-cc-pvdz symm=none int=(grid=ultrafine) guess=(read,tcheck) s
 table=(opt,rrhf)
 ----------------------------------------------------------------------
 -----
 title
 -----
 Symbolic Z-matrix:
 Charge =  0 Multiplicity = 1

 SCF Done:  E(RHF) =  -855.907877813     A.U. after   14 cycles
 Normal termination of Gaussian 16 at Wed Apr  9 19:22:45 2025.
 Gaussian 16:  ES64L-G16RevC.01  3-Jul-2019

 ----------------------------------------------------------------------
 #t hf aug-cc-pvdz iop(5/13=1,5/36=2,99/5=2) pseudo=read geom=check gue
 ss=(read,tcheck) scf=(maxcycle=1)
 ----------------------------------------------------------------------
 -----
 title
 -----
 Structure from the checkpoint file:  "HB300SPXx10_1034_4.07_0.95_phosphaalkyne_methanethiol_dimer_mol1.chk"
 Charge =  0 Multiplicity = 1

                         Standard orientation:
 ---------------------------------------------------------------------
 Center     Atomic      Atomic             Coordinates (Angstroms)
 Number     Number       Type             X           Y           Z
 ---------------------------------------------------------------------
      1          1           0       -1.318788    2.142833    1.269763
      2          1           0       -1.582514    2.488728   -0.441719
      3          1           0       -0.016674    1.872545    0.099215
      4         15           0       -2.017693   -1.010135   -0.169797
      5          6           0       -1.551131    0.441325    0.050194
      6          6           0       -1.095891    1.804899    0.256075
      7          1           0        0.878058   -0.205585    1.524320
      8          1           0        2.635440   -0.400572    1.641848
      9          1           0        1.648404   -1.713084    0.983414
     10          1           0        0.850726   -0.257306   -1.123909
     11          6           0        1.754997   -0.634388    1.049177
     12         16           0        2.032681    0.097091   -0.596166
 ---------------------------------------------------------------------

 SCF Done:  E(RHF) =  -856.135015130     A.U. after    2 cycles

 The electronic state is 1-A.
 Alpha  occ. eigenvalues --  -93.94502 -84.26396 -11.29213 -11.26584 -11.26323
 Alpha  occ. eigenvalues --   -8.22607  -6.74050  -6.20467  -6.20324  -6.20096
 Alpha  occ. eigenvalues --   -4.26997  -4.25405  -4.25270  -1.06435  -1.05361
 Alpha  occ. eigenvalues --   -0.91990  -0.88352  -0.67089  -0.62240  -0.60743
 Alpha  occ. eigenvalues --   -0.60525  -0.58870  -0.53376  -0.46720  -0.46520
 Alpha  occ. eigenvalues --   -0.36509  -0.35708  -0.35492
 Alpha virt. eigenvalues --    0.03382   0.03870   0.04759   0.05109   0.06269
 Alpha virt. eigenvalues --    0.06760   0.07200   0.07709   0.07864   0.08965
 Alpha virt. eigenvalues --    0.11277   0.12574   0.12902   0.14342   0.14664

 Mulliken charges:
               1
     1  H    0.255923
     2  H    0.188767
     3  H    0.160441
     4  P    0.798485
     5  C   -0.840226
     6  C   -0.567981
     7  H    0.170247
     8  H    0.154279
     9  H    0.143199
    10  H    0.395861
    11  C   -0.667259
    12  S   -0.191735
 Sum of Mulliken charges =  -0.00000

 Dipole moment (field-independent basis, Debye):
    X=             -1.0021    Y=             -0.4577    Z=              1.1560  Tot=              1.5969

 Test job not archived.
 1\1\GINC-SE037\SP\RHF\Aug-CC-pVDZ\C3H7P1S1\OHZDE\09-Apr-2025\0\\#t hf
 aug-cc-pvdz iop(5/13=1,5/36=2,99/5=2) pseudo=read geom=check guess=(re
 ad,tcheck) scf=(maxcycle=1)\\title\\0,1\H,0,0.38933231,2.34404549,-1.6
 8180664\H,0,-1.19987448,1.75919838,-2.18254684\H,0,0.10218747,0.605834
 91,-1.86864837\P,0,-1.17058474,1.34195856,1.32892267\C,0,-0.7484701,1.
 45533882,-0.14816129\C,0,-0.34350289,1.5476729,-1.53972175\H,0,1.80447
 195,0.0766849,0.12441975\H,0,2.84789807,-1.34272113,-0.06734599\H,0,1.
 77531515,-1.22434948,1.33480193\H,0,-0.44482784,-1.29108872,-0.1694924

 Normal termination of Gaussian 16 at Wed Apr  9 19:22:49 2025.
