 Gaussian 16, Revision C.01,

 ----------------------------------------------------------------------
 #t hf aug-cc-pvdz symm=none int=(grid=ultrafine) guess=(read,tcheck) s
 table=(opt,rrhf)
 ----------------------------------------------------------------------
 -----
 title
 -----
 Symbolic Z-matrix:
 Charge =  0 Multiplicity = 1

 SCF Done:  E(RHF) =  -418.180204019     A.U. after   14 cycles
 Normal termination of Gaussian 16 at Wed Apr  9 19:22:37 2025.
 Gaussian 16:  ES64L-G16RevC.01  3-Jul-2019

 ----------------------------------------------------------------------
 #t hf aug-cc-pvdz iop(5/13=1,5/36=2,99/5=2) pseudo=read geom=check gue
 ss=(read,tcheck) scf=(maxcycle=1)
 ----------------------------------------------------------------------
 -----
 title
 -----
 Structure from the checkpoint file:  "HB300SPXx10_1031_4.07_0.80_phosphaalkyne_methanethiol_dimer_mol2.chk"
 Charge =  0 Multiplicity = 1

                         Standard orientation:
 ---------------------------------------------------------------------
 Center     Atomic      Atomic             Coordinates (Angstroms)
 Number     Number       Type             X           Y           Z
 ---------------------------------------------------------------------
      1          1           0        2.141404   -0.797341   -0.632927
      2          1           0        2.142304   -0.141456    1.006640
      3          1           0        2.121633    0.955882   -0.378845
      4         15           0       -1.244556    0.000954   -0.000465
      5          6           0        0.295816   -0.006326    0.003125
      6          6           0        1.748018    0.001094   -0.001109
 ---------------------------------------------------------------------

 SCF Done:  E(RHF) =  -418.300400289     A.U. after    2 cycles

 The electronic state is 1-A.
 Alpha  occ. eigenvalues --  -84.25854 -11.28588 -11.26550  -6.73505  -4.26418
 Alpha  occ. eigenvalues --   -4.24672  -4.24669  -1.05499  -0.91482  -0.66878
 Alpha  occ. eigenvalues --   -0.60502  -0.60412  -0.45951  -0.35144  -0.35125
 Alpha virt. eigenvalues --    0.03289   0.05262   0.05270   0.06647   0.07652
 Alpha virt. eigenvalues --    0.07667   0.08354   0.14572   0.14594   0.15327
 Alpha virt. eigenvalues --    0.15535   0.15544   0.16594   0.18602   0.18611

 Mulliken charges:
               1
     1  H    0.212761
     2  H    0.211618
     3  H    0.218029
     4  P    0.876742
     5  C   -0.933205
     6  C   -0.585945
 Sum of Mulliken charges =  -0.00000

 Dipole moment (field-independent basis, Debye):
    X=              0.4474    Y=              0.0215    Z=             -0.0094  Tot=              0.4480

 Test job not archived.
 1\1\GINC-SE219\SP\RHF\Aug-CC-pVDZ\C2H3P1\OHZDE\09-Apr-2025\0\\#t hf au
 g-cc-pvdz iop(5/13=1,5/36=2,99/5=2) pseudo=read geom=check guess=(read
 ,tcheck) scf=(maxcycle=1)\\title\\0,1\H,0,0.38933231,2.34404549,-1.681
 80664\H,0,-1.19987448,1.75919838,-2.18254684\H,0,0.10218747,0.60583491
 ,-1.86864837\P,0,-1.17058474,1.34195856,1.32892267\C,0,-0.7484701,1.45
 533882,-0.14816129\C,0,-0.34350289,1.5476729,-1.53972175\\Version=ES64
 L-G16RevC.01\State=1-A\HF=-418.3004003\RMSD=6.415e-02\Dipole=0.051993,
 0.0035166,-0.1683736\Quadrupole=-1.0233894,-1.2848007,2.3081901,0.0806

 Normal termination of Gaussian 16 at Wed Apr  9 19:22:38 2025.
