 Gaussian 16, Revision C.01,

 ----------------------------------------------------------------------
 #t hf aug-cc-pvdz symm=none int=(grid=ultrafine) guess=(read,tcheck) s
 table=(opt,rrhf)
 ----------------------------------------------------------------------
 -----
 title
 -----
 Symbolic Z-matrix:
 Charge =  0 Multiplicity = 1

 SCF Done:  E(RHF) =  -1037.69025433     A.U. after   15 cycles
 Normal termination of Gaussian 16 at Wed Apr  9 19:34:53 2025.
 Gaussian 16:  ES64L-G16RevC.01  3-Jul-2019

 ----------------------------------------------------------------------
 #t hf aug-cc-pvdz iop(5/13=1,5/36=2,99/5=2) pseudo=read geom=check gue
 ss=(read,tcheck) scf=(maxcycle=1)
 ----------------------------------------------------------------------
 -----
 title
 -----
 Structure from the checkpoint file:  "HB300SPXx10_1472_5.10_0.85_phosphaalkene_phosphineF2_dimer_mol1.chk"
 Charge =  0 Multiplicity = 1

                         Standard orientation:
 ---------------------------------------------------------------------
 Center     Atomic      Atomic             Coordinates (Angstroms)
 Number     Number       Type             X           Y           Z
 ---------------------------------------------------------------------
      1          1           0        1.262115    2.978884   -0.602269
      2          1           0        0.360816    2.144616    0.664759
      3          1           0        2.130910    2.213067    0.727146
      4          1           0        1.503534   -2.104031   -1.514893
      5          1           0        0.536147   -1.234860    2.006222
      6          1           0        2.389235   -2.574750   -0.059445
      7          1           0        0.636496   -2.691003   -0.088443
      8          1           0        1.218224    0.392411    1.997933
      9          1           0        2.274046   -1.023640    2.031836
     10         15           0        1.366631    0.584252   -0.973148
     11          6           0        1.382700   -0.691360    0.122517
     12          6           0        1.482028   -2.087961   -0.426706
     13          6           0        1.348010   -0.615191    1.617592
     14          6           0        1.270042    2.120023    0.066384
     15         15           0       -1.554485   -0.295888   -0.212812
     16          9           0       -3.156659   -0.367592   -0.218594
     17          9           0       -1.392495    0.888750    0.853936
     18          1           0       -1.448023    0.530369   -1.370249
 ---------------------------------------------------------------------

 SCF Done:  E(RHF) =  -1038.13137621     A.U. after    2 cycles

 The electronic state is 1-A.
 Alpha  occ. eigenvalues --  -84.40152 -84.25791 -26.48021 -26.46791 -11.28118
 Alpha  occ. eigenvalues --  -11.24576 -11.24335 -11.23243  -6.85807  -6.73173
 Alpha  occ. eigenvalues --   -4.38694  -4.38078  -4.37135  -4.26119  -4.25197
 Alpha  occ. eigenvalues --   -4.24926  -1.61885  -1.57170  -1.09652  -0.98243
 Alpha  occ. eigenvalues --   -0.95906  -0.88201  -0.85059  -0.70889  -0.70700
 Alpha  occ. eigenvalues --   -0.69333  -0.68973  -0.64387  -0.62489  -0.61758
 Alpha  occ. eigenvalues --   -0.60803  -0.60187  -0.57368  -0.56735  -0.55748
 Alpha  occ. eigenvalues --   -0.55643  -0.52759  -0.47197  -0.38441  -0.35363
 Alpha  occ. eigenvalues --   -0.31570
 Alpha virt. eigenvalues --    0.03457   0.03848   0.04335   0.04429   0.05847
 Alpha virt. eigenvalues --    0.06184   0.06486   0.06953   0.07967   0.08421
 Alpha virt. eigenvalues --    0.09309   0.10213   0.10645   0.11411   0.11914

 Mulliken charges:
               1
     1  H   -0.047671
     2  H    0.129960
     3  H    0.114131
     4  H    0.140359
     5  H    0.221825
     6  H    0.227225
     7  H    0.238489
     8  H    0.081511
     9  H    0.191352
    10  P    1.012003
    11  C   -0.345752
    12  C   -0.517692
    13  C   -0.504192
    14  C   -0.828077
    15  P    1.550176
    16  F   -0.792406
    17  F   -0.919669
    18  H    0.048427
 Sum of Mulliken charges =  -0.00000

 Dipole moment (field-independent basis, Debye):
    X=              1.8684    Y=             -0.2853    Z=              0.2500  Tot=              1.9066

 Test job not archived.
 1\1\GINC-SE016\SP\RHF\Aug-CC-pVDZ\C4H10F2P2\OHZDE\09-Apr-2025\0\\#t hf
  aug-cc-pvdz iop(5/13=1,5/36=2,99/5=2) pseudo=read geom=check guess=(r
 ead,tcheck) scf=(maxcycle=1)\\title\\0,1\H,0,-0.66372889,3.26375392,-1
 .41484082\H,0,0.57607353,2.07688321,-1.82463407\H,0,-0.55842324,2.6448
 712,-3.06242126\H,0,-2.87100416,-1.40911587,-1.55416728\H,0,0.42715494
 ,-1.23076192,-3.33739031\H,0,-2.60862974,-1.75549695,-3.26751243\H,0,-
 1.47646146,-2.36750684,-2.07165071\H,0,0.4157342,0.51539066,-3.5906339
 2\H,0,-0.67072928,-0.53226666,-4.50884988\P,0,-1.6570918,1.05342876,-1

 Normal termination of Gaussian 16 at Wed Apr  9 19:35:01 2025.
