 Gaussian 16, Revision C.01,

 ----------------------------------------------------------------------
 #t hf aug-cc-pvdz symm=none int=(grid=ultrafine) guess=(read,tcheck) s
 table=(opt,rrhf)
 ----------------------------------------------------------------------
 -----
 title
 -----
 Symbolic Z-matrix:
 Charge =  0 Multiplicity = 1

 SCF Done:  E(RHF) =  -897.823377252     A.U. after   11 cycles
 Normal termination of Gaussian 16 at Wed Apr  9 19:29:43 2025.
 Gaussian 16:  ES64L-G16RevC.01  3-Jul-2019

 ----------------------------------------------------------------------
 #t hf aug-cc-pvdz iop(5/13=1,5/36=2,99/5=2) pseudo=read geom=check gue
 ss=(read,tcheck) scf=(maxcycle=1)
 ----------------------------------------------------------------------
 -----
 title
 -----
 Structure from the checkpoint file:  "HB300SPXx10_1334_4.38_0.95_hydrogenchloride_methanethiol_dimer_mol1.chk"
 Charge =  0 Multiplicity = 1

                         Standard orientation:
 ---------------------------------------------------------------------
 Center     Atomic      Atomic             Coordinates (Angstroms)
 Number     Number       Type             X           Y           Z
 ---------------------------------------------------------------------
      1          1           0       -0.832775   -0.398388   -0.090735
      2         17           0       -2.057345    0.055733    0.004378
      3          1           0        0.682256    1.584914    0.556335
      4          1           0        1.507578    1.492372   -1.005037
      5          1           0        2.456347    1.380913    0.484783
      6          1           0        1.318913   -0.931961    1.232062
      7          6           0        1.508697    1.129921    0.019112
      8         16           0        1.299398   -0.678428   -0.085406
 ---------------------------------------------------------------------

 SCF Done:  E(RHF) =  -898.010442983     A.U. after    2 cycles

 The electronic state is 1-A.
 Alpha  occ. eigenvalues -- -105.55290 -93.97504 -11.28537 -10.60112  -8.25631
 Alpha  occ. eigenvalues --   -7.77077  -7.76728  -7.76726  -6.23472  -6.23326
 Alpha  occ. eigenvalues --   -6.23133  -1.08811  -1.04366  -0.90740  -0.63854
 Alpha  occ. eigenvalues --   -0.63140  -0.59812  -0.55721  -0.49052  -0.46158
 Alpha  occ. eigenvalues --   -0.46132  -0.39057
 Alpha virt. eigenvalues --    0.03137   0.04154   0.05122   0.05801   0.07946
 Alpha virt. eigenvalues --    0.09974   0.11098   0.12793   0.14069   0.14386
 Alpha virt. eigenvalues --    0.15744   0.16301   0.17147   0.18100   0.19497

 Mulliken charges:
               1
     1  H    0.361210
     2  Cl  -0.227243
     3  H    0.111045
     4  H    0.203757
     5  H    0.123674
     6  H    0.385841
     7  C   -0.577249
     8  S   -0.381034
 Sum of Mulliken charges =  -0.00000

 Dipole moment (field-independent basis, Debye):
    X=              2.6473    Y=              0.9189    Z=              0.8276  Tot=              2.9219

 Test job not archived.
 1\1\GINC-SE083\SP\RHF\Aug-CC-pVDZ\C1H5Cl1S1\OHZDE\09-Apr-2025\0\\#t hf
  aug-cc-pvdz iop(5/13=1,5/36=2,99/5=2) pseudo=read geom=check guess=(r
 ead,tcheck) scf=(maxcycle=1)\\title\\0,1\H,0,-0.71323053,0.36081391,-0
 .38963987\Cl,0,-0.97574618,1.50432633,-0.9712843\H,0,1.68171032,0.5998
 649,0.53481523\H,0,2.2068157,-0.80596533,-0.40087019\H,0,2.43906525,-0
 .79661654,1.35358767\H,0,-0.19457345,-0.77759525,1.86851731\C,0,1.7859
 5852,-0.48070443,0.5464084\S,0,0.15725445,-1.2897323,0.67926745\\Versi
 on=ES64L-G16RevC.01\State=1-A\HF=-898.010443\RMSD=5.058e-03\Dipole=0.8

 Normal termination of Gaussian 16 at Wed Apr  9 19:29:45 2025.
