 Gaussian 16, Revision C.01,

 ----------------------------------------------------------------------
 #t hf aug-cc-pvdz symm=none int=(grid=ultrafine) guess=(read,tcheck) s
 table=(opt,rrhf)
 ----------------------------------------------------------------------
 -----
 title
 -----
 Symbolic Z-matrix:
 Charge =  0 Multiplicity = 1

 SCF Done:  E(RHF) =  -1017.02070479     A.U. after   12 cycles
 Normal termination of Gaussian 16 at Wed Apr  9 19:31:04 2025.
 Gaussian 16:  ES64L-G16RevC.01  3-Jul-2019

 ----------------------------------------------------------------------
 #t hf aug-cc-pvdz iop(5/13=1,5/36=2,99/5=2) pseudo=read geom=check gue
 ss=(read,tcheck) scf=(maxcycle=1)
 ----------------------------------------------------------------------
 -----
 title
 -----
 Structure from the checkpoint file:  "HB300SPXx10_1382_5.01_0.85_dimethylsulfide_phosphineF2_dimer_mol1.chk"
 Charge =  0 Multiplicity = 1

                         Standard orientation:
 ---------------------------------------------------------------------
 Center     Atomic      Atomic             Coordinates (Angstroms)
 Number     Number       Type             X           Y           Z
 ---------------------------------------------------------------------
      1          1           0       -0.532443    0.877344    1.437117
      2          1           0       -2.270855    1.271061    1.420215
      3          1           0       -1.118389    2.267335    0.513952
      4          1           0       -2.007286   -2.072693   -0.710719
      5          1           0       -2.767016   -1.337578    0.708522
      6          1           0       -1.015773   -1.664808    0.701130
      7          6           0       -1.354065    1.255597    0.833675
      8         16           0       -1.564731    0.258033   -0.662879
      9          6           0       -1.866845   -1.358140    0.096825
     10         15           0        1.934354   -0.304762   -0.333132
     11          9           0        1.133778   -0.972031    0.883167
     12          9           0        1.548351    1.223130   -0.077099
     13          1           0        0.918448   -0.542396   -1.304771
 ---------------------------------------------------------------------

 SCF Done:  E(RHF) =  -1017.39493092     A.U. after    2 cycles

 The electronic state is 1-A.
 Alpha  occ. eigenvalues --  -93.93599 -84.40732 -26.48637 -26.48346 -11.25703
 Alpha  occ. eigenvalues --  -11.25486  -8.21751  -6.86464  -6.19579  -6.19421
 Alpha  occ. eigenvalues --   -6.19205  -4.39328  -4.38594  -4.37687  -1.62842
 Alpha  occ. eigenvalues --   -1.58362  -1.08193  -0.95592  -0.88610  -0.82396
 Alpha  occ. eigenvalues --   -0.71812  -0.71442  -0.70072  -0.65650  -0.62639
 Alpha  occ. eigenvalues --   -0.60772  -0.60358  -0.58335  -0.57621  -0.56657
 Alpha  occ. eigenvalues --   -0.50121  -0.44223  -0.39021  -0.33642
 Alpha virt. eigenvalues --    0.03868   0.04245   0.04768   0.05527   0.06590
 Alpha virt. eigenvalues --    0.06904   0.07589   0.08878   0.09651   0.10002
 Alpha virt. eigenvalues --    0.12183   0.13783   0.14979   0.15765   0.16165

 Mulliken charges:
               1
     1  H    0.182915
     2  H    0.118193
     3  H    0.151526
     4  H    0.148405
     5  H    0.141685
     6  H    0.156585
     7  C   -0.579212
     8  S    0.263072
     9  C   -0.634089
    10  P    1.375712
    11  F   -0.750992
    12  F   -0.716496
    13  H    0.142695
 Sum of Mulliken charges =  -0.00000

 Dipole moment (field-independent basis, Debye):
    X=              0.1412    Y=             -0.9873    Z=              0.3792  Tot=              1.0670

 Test job not archived.
 1\1\GINC-SE220\SP\RHF\Aug-CC-pVDZ\C2H7F2P1S1\OHZDE\09-Apr-2025\0\\#t h
 f aug-cc-pvdz iop(5/13=1,5/36=2,99/5=2) pseudo=read geom=check guess=(
 read,tcheck) scf=(maxcycle=1)\\title\\0,1\H,0,0.35324965,2.18742239,-0
 .72380577\H,0,0.23256961,2.54349189,-2.46622469\H,0,1.47961489,1.43776
 879,-1.86264863\H,0,-2.97879656,0.33269977,-1.6977403\H,0,-2.43534977,
 1.89515642,-2.32640837\H,0,-2.24831697,1.5140911,-0.59615001\C,0,0.456
 3691,1.7777672,-1.72571744\S,0,-0.61885679,0.337269,-1.94490696\C,0,-2
 .22218849,1.10820804,-1.60517522\P,0,-0.14420876,-0.08535661,1.5572580

 Normal termination of Gaussian 16 at Wed Apr  9 19:31:08 2025.
