 Gaussian 16, Revision C.01,

 ----------------------------------------------------------------------
 #t hf aug-cc-pvdz symm=none int=(grid=ultrafine) guess=(read,tcheck) s
 table=(opt,rrhf)
 ----------------------------------------------------------------------
 -----
 title
 -----
 Symbolic Z-matrix:
 Charge =  0 Multiplicity = 1

 SCF Done:  E(RHF) =  -742.479750820     A.U. after   14 cycles
 Normal termination of Gaussian 16 at Wed Apr  9 19:27:22 2025.
 Gaussian 16:  ES64L-G16RevC.01  3-Jul-2019

 ----------------------------------------------------------------------
 #t hf aug-cc-pvdz iop(5/13=1,5/36=2,99/5=2) pseudo=read geom=check gue
 ss=(read,tcheck) scf=(maxcycle=1)
 ----------------------------------------------------------------------
 -----
 title
 -----
 Structure from the checkpoint file:  "HB300SPXx10_1140_4.17_2.00_aceticacid_thioacetone_dimer_mol1.chk"
 Charge =  0 Multiplicity = 1

                         Standard orientation:
 ---------------------------------------------------------------------
 Center     Atomic      Atomic             Coordinates (Angstroms)
 Number     Number       Type             X           Y           Z
 ---------------------------------------------------------------------
      1          6           0        2.760352   -2.543945    0.000000
      2          8           0        3.136584   -1.395795    0.000000
      3          8           0        1.469753   -2.899087    0.000000
      4          1           0        0.899972   -2.096536    0.000000
      5          6           0        3.670064   -3.741849    0.000000
      6          1           0        4.704893   -3.418136    0.000000
      7          1           0        3.470007   -4.356060    0.876954
      8          1           0        3.470007   -4.356060   -0.876954
      9          1           0       -4.098937    3.219876    0.000000
     10          1           0       -2.883633    4.179111    0.874412
     11          1           0       -2.883633    4.179111   -0.874412
     12          1           0        0.000000    1.909785    0.000000
     13          1           0       -0.447511    3.393662   -0.872921
     14          6           0       -3.065613    3.549391    0.000000
     15          6           0       -2.106795    2.398858    0.000000
     16         16           0       -2.638861    0.857191    0.000000
     17          6           0       -0.660104    2.770142    0.000000
     18          1           0       -0.447511    3.393662    0.872921
 ---------------------------------------------------------------------

 SCF Done:  E(RHF) =  -742.895050815     A.U. after    2 cycles

 The electronic state is 1-A'.
 Alpha  occ. eigenvalues --  -93.92386 -20.60072 -20.53330 -11.39379 -11.33267
 Alpha  occ. eigenvalues --  -11.25340 -11.25326 -11.25224  -8.20657  -6.18472
 Alpha  occ. eigenvalues --   -6.18287  -6.18059  -1.54624  -1.44805  -1.13473
 Alpha  occ. eigenvalues --   -1.02967  -0.97587  -0.97305  -0.82899  -0.73428
 Alpha  occ. eigenvalues --   -0.70554  -0.68328  -0.65085  -0.62525  -0.62278
 Alpha  occ. eigenvalues --   -0.62205  -0.58032  -0.57124  -0.56747  -0.56050
 Alpha  occ. eigenvalues --   -0.54335  -0.50566  -0.47155  -0.44226  -0.39298
 Alpha  occ. eigenvalues --   -0.34366
 Alpha virt. eigenvalues --    0.03223   0.03805   0.03810   0.04647   0.05574
 Alpha virt. eigenvalues --    0.05585   0.06097   0.06596   0.07045   0.07644
 Alpha virt. eigenvalues --    0.08713   0.09594   0.10705   0.11762   0.11786

 Mulliken charges:
               1
     1  C    1.849371
     2  O   -1.167275
     3  O   -1.195787
     4  H    0.399879
     5  C   -0.499223
     6  H    0.176671
     7  H    0.219279
     8  H    0.219279
     9  H    0.166296
    10  H    0.251963
    11  H    0.251963
    12  H    0.149348
    13  H    0.255641
    14  C   -0.469008
    15  C   -0.487897
    16  S    0.108949
    17  C   -0.485089
    18  H    0.255641
 Sum of Mulliken charges =  -0.00000

 Dipole moment (field-independent basis, Debye):
    X=              0.2749    Y=              1.5387    Z=             -0.0000  Tot=              1.5631

 Test job not archived.
 1\1\GINC-SE222\SP\RHF\Aug-CC-pVDZ\C5H10O2S1\OHZDE\09-Apr-2025\0\\#t hf
  aug-cc-pvdz iop(5/13=1,5/36=2,99/5=2) pseudo=read geom=check guess=(r
 ead,tcheck) scf=(maxcycle=1)\\title\\0,1\C,0,0.15920132,2.45664609,0.\
 O,0,1.21885316,1.87618237,0.\O,0,-1.02533188,1.83322707,0.\H,0,-0.8922
 641,0.85801947,0.\C,0,0.00380934,3.95277518,0.\H,0,0.98023034,4.424223
 4,0.\H,0,-0.56217465,4.2641268,-0.87695442\H,0,-0.56217465,4.2641268,0
 .87695442\H,0,-0.90418599,-6.43945926,0.\H,0,0.63850413,-6.30830244,-0
 .87441231\H,0,0.63850413,-6.30830244,0.87441231\H,0,1.19070539,-2.6805

 Normal termination of Gaussian 16 at Wed Apr  9 19:27:27 2025.
