 Gaussian 16, Revision C.01,

 ----------------------------------------------------------------------
 #t hf aug-cc-pvdz symm=none int=(grid=ultrafine) guess=(read,tcheck) s
 table=(opt,rrhf)
 ----------------------------------------------------------------------
 -----
 title
 -----
 Symbolic Z-matrix:
 Charge =  0 Multiplicity = 1

 SCF Done:  E(RHF) =  -514.629206454     A.U. after   12 cycles
 Normal termination of Gaussian 16 at Wed Apr  9 19:26:43 2025.
 Gaussian 16:  ES64L-G16RevC.01  3-Jul-2019

 ----------------------------------------------------------------------
 #t hf aug-cc-pvdz iop(5/13=1,5/36=2,99/5=2) pseudo=read geom=check gue
 ss=(read,tcheck) scf=(maxcycle=1)
 ----------------------------------------------------------------------
 -----
 title
 -----
 Structure from the checkpoint file:  "HB300SPXx10_1131_4.17_0.80_aceticacid_thioacetone_dimer_mol3.chk"
 Charge =  0 Multiplicity = 1

                         Standard orientation:
 ---------------------------------------------------------------------
 Center     Atomic      Atomic             Coordinates (Angstroms)
 Number     Number       Type             X           Y           Z
 ---------------------------------------------------------------------
      1          1           0       -2.154054    0.310976    0.000000
      2          1           0       -1.363296    1.642065    0.874412
      3          1           0       -1.363296    1.642065   -0.874412
      4          1           0        2.142116    0.557045    0.000000
      5          1           0        1.192493    1.781942   -0.872921
      6          6           0       -1.307484    0.988957    0.000000
      7          6           0        0.000000    0.258518    0.000000
      8         16           0        0.055840   -1.371425    0.000000
      9          6           0        1.217503    1.123651    0.000000
     10          1           0        1.192493    1.781942    0.872921
 ---------------------------------------------------------------------

 SCF Done:  E(RHF) =  -514.815924997     A.U. after    2 cycles

 The electronic state is 1-A'.
 Alpha  occ. eigenvalues --  -93.92166 -11.33065 -11.25384 -11.25220  -8.20434
 Alpha  occ. eigenvalues --   -6.18246  -6.18064  -6.17832  -1.13332  -0.97515
 Alpha  occ. eigenvalues --   -0.97181  -0.73342  -0.62487  -0.62165  -0.62154
 Alpha  occ. eigenvalues --   -0.56729  -0.54300  -0.50391  -0.39096  -0.34106
 Alpha virt. eigenvalues --    0.03148   0.03824   0.04315   0.05720   0.06696
 Alpha virt. eigenvalues --    0.07294   0.07501   0.08602   0.10544   0.13403
 Alpha virt. eigenvalues --    0.14183   0.14489   0.16236   0.16876   0.16924

 Mulliken charges:
               1
     1  H    0.167035
     2  H    0.245612
     3  H    0.245612
     4  H    0.163738
     5  H    0.251260
     6  C   -0.456345
     7  C   -0.502062
     8  S    0.081452
     9  C   -0.447562
    10  H    0.251260
 Sum of Mulliken charges =  -0.00000

 Dipole moment (field-independent basis, Debye):
    X=             -0.1324    Y=              3.4197    Z=             -0.0000  Tot=              3.4223

 Test job not archived.
 1\1\GINC-SE083\SP\RHF\Aug-CC-pVDZ\C3H6S1\OHZDE\09-Apr-2025\0\\#t hf au
 g-cc-pvdz iop(5/13=1,5/36=2,99/5=2) pseudo=read geom=check guess=(read
 ,tcheck) scf=(maxcycle=1)\\title\\0,1\H,0,-0.56683422,-3.69438738,0.\H
 ,0,0.9758559,-3.56323056,-0.87441231\H,0,0.9758559,-3.56323056,0.87441
 231\H,0,1.52805716,0.06447593,0.\H,0,2.21624809,-1.32424657,0.87292068
 \C,0,0.41245578,-3.22820092,0.\C,0,0.32528707,-1.7330563,0.\S,0,-1.117
 16528,-0.97202844,0.\C,0,1.6347512,-1.01467575,0.\H,0,2.21624809,-1.32
 424657,-0.87292068\\Version=ES64L-G16RevC.01\State=1-A'\HF=-514.815925

 Normal termination of Gaussian 16 at Wed Apr  9 19:26:45 2025.
