 Gaussian 16, Revision C.01,

 ----------------------------------------------------------------------
 #t hf aug-cc-pvdz symm=none int=(grid=ultrafine) guess=(read,tcheck) s
 table=(opt,rrhf)
 ----------------------------------------------------------------------
 -----
 title
 -----
 Symbolic Z-matrix:
 Charge =  0 Multiplicity = 1

 SCF Done:  E(RHF) =  -1017.02563312     A.U. after   12 cycles
 Normal termination of Gaussian 16 at Wed Apr  9 19:31:03 2025.
 Gaussian 16:  ES64L-G16RevC.01  3-Jul-2019

 ----------------------------------------------------------------------
 #t hf aug-cc-pvdz iop(5/13=1,5/36=2,99/5=2) pseudo=read geom=check gue
 ss=(read,tcheck) scf=(maxcycle=1)
 ----------------------------------------------------------------------
 -----
 title
 -----
 Structure from the checkpoint file:  "HB300SPXx10_1384_5.01_0.95_dimethylsulfide_phosphineF2_dimer_mol1.chk"
 Charge =  0 Multiplicity = 1

                         Standard orientation:
 ---------------------------------------------------------------------
 Center     Atomic      Atomic             Coordinates (Angstroms)
 Number     Number       Type             X           Y           Z
 ---------------------------------------------------------------------
      1          1           0       -0.624079    0.854491    1.431444
      2          1           0       -2.351182    1.295488    1.428658
      3          1           0       -1.179451    2.259800    0.512580
      4          1           0       -2.196447   -2.054563   -0.703069
      5          1           0       -2.924154   -1.298760    0.722075
      6          1           0       -1.182610   -1.673649    0.700437
      7          6           0       -1.440005    1.254920    0.834620
      8         16           0       -1.690095    0.263230   -0.659768
      9          6           0       -2.029935   -1.343974    0.103018
     10         15           0        2.050110   -0.320189   -0.339226
     11          9           0        1.241648   -0.965168    0.883863
     12          9           0        1.708050    1.217707   -0.080626
     13          1           0        1.020152   -0.530178   -1.302401
 ---------------------------------------------------------------------

 SCF Done:  E(RHF) =  -1017.39981138     A.U. after    2 cycles

 The electronic state is 1-A.
 Alpha  occ. eigenvalues --  -93.93700 -84.40939 -26.48627 -26.48434 -11.25862
 Alpha  occ. eigenvalues --  -11.25589  -8.21828  -6.86655  -6.19661  -6.19503
 Alpha  occ. eigenvalues --   -6.19281  -4.39504  -4.38763  -4.37835  -1.62808
 Alpha  occ. eigenvalues --   -1.58329  -1.08206  -0.95645  -0.88570  -0.82448
 Alpha  occ. eigenvalues --   -0.71697  -0.71307  -0.69848  -0.65491  -0.62568
 Alpha  occ. eigenvalues --   -0.60874  -0.60663  -0.58400  -0.57763  -0.56879
 Alpha  occ. eigenvalues --   -0.50187  -0.44226  -0.38835  -0.33985
 Alpha virt. eigenvalues --    0.03863   0.04245   0.04782   0.05559   0.06555
 Alpha virt. eigenvalues --    0.06866   0.07581   0.08741   0.09635   0.09899
 Alpha virt. eigenvalues --    0.12137   0.13777   0.14867   0.15860   0.16198

 Mulliken charges:
               1
     1  H    0.167532
     2  H    0.141879
     3  H    0.143712
     4  H    0.145648
     5  H    0.157724
     6  H    0.143441
     7  C   -0.601816
     8  S    0.310663
     9  C   -0.651927
    10  P    1.381052
    11  F   -0.745211
    12  F   -0.723148
    13  H    0.130452
 Sum of Mulliken charges =  -0.00000

 Dipole moment (field-independent basis, Debye):
    X=              0.1101    Y=             -1.0141    Z=              0.3933  Tot=              1.0932

 Test job not archived.
 1\1\GINC-SE036\SP\RHF\Aug-CC-pVDZ\C2H7F2P1S1\OHZDE\09-Apr-2025\0\\#t h
 f aug-cc-pvdz iop(5/13=1,5/36=2,99/5=2) pseudo=read geom=check guess=(
 read,tcheck) scf=(maxcycle=1)\\title\\0,1\H,0,0.35324965,2.18742239,-0
 .72380577\H,0,0.23256961,2.54349189,-2.46622469\H,0,1.47961489,1.43776
 879,-1.86264863\H,0,-2.97879656,0.33269977,-1.6977403\H,0,-2.43534977,
 1.89515642,-2.32640837\H,0,-2.24831697,1.5140911,-0.59615001\C,0,0.456
 3691,1.7777672,-1.72571744\S,0,-0.61885679,0.337269,-1.94490696\C,0,-2
 .22218849,1.10820804,-1.60517522\P,0,0.00697571,-0.11561603,1.77470125

 Normal termination of Gaussian 16 at Wed Apr  9 19:31:07 2025.
