 Gaussian 16, Revision C.01,

 ----------------------------------------------------------------------
 #t hf aug-cc-pvdz symm=none int=(grid=ultrafine) guess=(read,tcheck) s
 table=(opt,rrhf)
 ----------------------------------------------------------------------
 -----
 title
 -----
 Symbolic Z-matrix:
 Charge =  0 Multiplicity = 1

 SCF Done:  E(RHF) =  -513.773610305     A.U. after   11 cycles
 Normal termination of Gaussian 16 at Wed Apr  9 19:27:42 2025.
 Gaussian 16:  ES64L-G16RevC.01  3-Jul-2019

 ----------------------------------------------------------------------
 #t hf aug-cc-pvdz iop(5/13=1,5/36=2,99/5=2) pseudo=read geom=check gue
 ss=(read,tcheck) scf=(maxcycle=1)
 ----------------------------------------------------------------------
 -----
 title
 -----
 Structure from the checkpoint file:  "HB300SPXx10_1169_4.21_1.50_water_methanethiol_dimer_mol1.chk"
 Charge =  0 Multiplicity = 1

                         Standard orientation:
 ---------------------------------------------------------------------
 Center     Atomic      Atomic             Coordinates (Angstroms)
 Number     Number       Type             X           Y           Z
 ---------------------------------------------------------------------
      1          8           0       -3.218468    0.088505    0.053088
      2          1           0       -2.381169   -0.375479   -0.090777
      3          1           0       -3.895304   -0.490108   -0.304179
      4          1           0        0.282239    1.498254    0.494686
      5          1           0        1.188416    1.514467   -1.022092
      6          1           0        2.070318    1.556435    0.511272
      7          1           0        1.256123   -0.892250    1.239875
      8          6           0        1.192494    1.165118    0.006690
      9         16           0        1.254510   -0.656879   -0.080852
 ---------------------------------------------------------------------

 SCF Done:  E(RHF) =  -513.959638765     A.U. after    2 cycles

 The electronic state is 1-A.
 Alpha  occ. eigenvalues --  -93.95442 -20.55500 -11.27224  -8.23527  -6.21386
 Alpha  occ. eigenvalues --   -6.21238  -6.21008  -1.43311  -1.06553  -0.89008
 Alpha  occ. eigenvalues --   -0.70645  -0.62062  -0.60479  -0.57274  -0.54081
 Alpha  occ. eigenvalues --   -0.49468  -0.47211  -0.37065
 Alpha virt. eigenvalues --    0.03553   0.04168   0.04601   0.05795   0.06783
 Alpha virt. eigenvalues --    0.09365   0.10820   0.11743   0.13981   0.15179
 Alpha virt. eigenvalues --    0.15576   0.16206   0.17763   0.20047   0.21023

 Mulliken charges:
               1
     1  O   -0.786677
     2  H    0.393071
     3  H    0.394891
     4  H    0.137371
     5  H    0.183267
     6  H    0.128645
     7  H    0.344417
     8  C   -0.673072
     9  S   -0.121913
 Sum of Mulliken charges =   0.00000

 Dipole moment (field-independent basis, Debye):
    X=              0.3679    Y=             -0.1662    Z=              0.0870  Tot=              0.4130

 Test job not archived.
 1\1\GINC-SE083\SP\RHF\Aug-CC-pVDZ\C1H6O1S1\OHZDE\09-Apr-2025\0\\#t hf
 aug-cc-pvdz iop(5/13=1,5/36=2,99/5=2) pseudo=read geom=check guess=(re
 ad,tcheck) scf=(maxcycle=1)\\title\\0,1\O,0,-0.58582535,-1.65985485,-1
 .57348405\H,0,-0.07487288,-1.34797585,-0.81275631\H,0,-0.15829821,-2.4
 72369,-1.85201796\H,0,-0.86400485,1.7217408,0.13671248\H,0,0.63572231,
 2.64912847,0.02354192\H,0,-0.52652067,3.03894446,1.29945282\H,0,-0.226
 83494,0.67409618,2.5272602\C,0,-0.09815691,2.23487248,0.70930145\S,0,0
 .81212933,1.0646186,1.7737583\\Version=ES64L-G16RevC.01\State=1-A\HF=-

 Normal termination of Gaussian 16 at Wed Apr  9 19:27:44 2025.
