 Gaussian 16, Revision C.01,

 ----------------------------------------------------------------------
 #t hf aug-cc-pvdz symm=none int=(grid=ultrafine) guess=(read,tcheck) s
 table=(opt,rrhf)
 ----------------------------------------------------------------------
 -----
 title
 -----
 Symbolic Z-matrix:
 Charge =  0 Multiplicity = 1

 SCF Done:  E(RHF) =  -875.455016467     A.U. after   12 cycles
 Normal termination of Gaussian 16 at Wed Apr  9 04:10:27 2025.
 Gaussian 16:  ES64L-G16RevC.01  3-Jul-2019

 ----------------------------------------------------------------------
 #t hf aug-cc-pvdz iop(5/13=1,5/36=2,99/5=2) pseudo=read geom=check gue
 ss=(read,tcheck) scf=(maxcycle=1)
 ----------------------------------------------------------------------
 -----
 title
 -----
 Structure from the checkpoint file:  "HB300SPXx10_1193_4.24_0.90_methanethiol_methanethiol_dimer_mol1.chk"
 Charge =  0 Multiplicity = 1

                         Standard orientation:
 ---------------------------------------------------------------------
 Center     Atomic      Atomic             Coordinates (Angstroms)
 Number     Number       Type             X           Y           Z
 ---------------------------------------------------------------------
      1          1           0       -0.917059    0.922338    1.360913
      2          1           0       -2.676599    0.917233    1.206940
      3          1           0       -1.705220    1.833322    0.049061
      4          1           0       -0.549083   -0.323057   -0.982590
      5          6           0       -1.741819    0.931273    0.652886
      6         16           0       -1.734397   -0.559915   -0.392907
      7          1           0        2.111218   -0.464430    1.754504
      8          1           0        2.120257   -1.705927    0.497303
      9          1           0        0.575254   -1.047978    1.045187
     10          1           0        1.183488    1.440132    0.146818
     11          6           0        1.617441   -0.809891    0.851393
     12         16           0        1.772148    0.416170   -0.488581
 ---------------------------------------------------------------------

 SCF Done:  E(RHF) =  -875.670289028     A.U. after    2 cycles

 The electronic state is 1-A.
 Alpha  occ. eigenvalues --  -93.95736 -93.94006 -11.27128 -11.26898  -8.23831
 Alpha  occ. eigenvalues --   -8.22142  -6.21686  -6.21538  -6.21318  -6.20000
 Alpha  occ. eigenvalues --   -6.19860  -6.19634  -1.07397  -1.05538  -0.89240
 Alpha  occ. eigenvalues --   -0.88425  -0.63210  -0.61879  -0.60685  -0.58996
 Alpha  occ. eigenvalues --   -0.54398  -0.53291  -0.47594  -0.46699  -0.37080
 Alpha  occ. eigenvalues --   -0.35973
 Alpha virt. eigenvalues --    0.03233   0.03776   0.04522   0.04872   0.07013
 Alpha virt. eigenvalues --    0.07269   0.07445   0.08925   0.10464   0.12552
 Alpha virt. eigenvalues --    0.12970   0.13261   0.14700   0.14869   0.15338

 Mulliken charges:
               1
     1  H    0.153711
     2  H    0.112890
     3  H    0.141133
     4  H    0.478753
     5  C   -0.664471
     6  S   -0.186240
     7  H    0.136472
     8  H    0.161755
     9  H    0.137460
    10  H    0.361303
    11  C   -0.616215
    12  S   -0.216552
 Sum of Mulliken charges =  -0.00000

 Dipole moment (field-independent basis, Debye):
    X=              0.5466    Y=              0.9204    Z=              1.9889  Tot=              2.2586

 Test job not archived.
 1\1\GINC-SE021\SP\RHF\Aug-CC-pVDZ\C2H8S2\OHZDE\09-Apr-2025\0\\#t hf au
 g-cc-pvdz iop(5/13=1,5/36=2,99/5=2) pseudo=read geom=check guess=(read
 ,tcheck) scf=(maxcycle=1)\\title\\0,1\H,0,1.48841111,-0.83932977,-0.94
 699875\H,0,2.60301323,-1.84400864,-0.01533608\H,0,2.55978836,-0.100175
 65,0.26866848\H,0,0.07877426,-0.11956038,1.21477831\C,0,1.95766928,-0.
 9705586,0.02469451\S,0,0.71991769,-1.29709475,1.32035013\H,0,-1.476181
 68,-0.00003296,-2.27186654\H,0,-2.54608093,-0.06769531,-0.86734282\H,0
 ,-0.99842221,-0.91723392,-0.81127384\H,0,0.41016747,1.39377509,-1.0182

 Normal termination of Gaussian 16 at Wed Apr  9 04:10:30 2025.
