 Gaussian 16, Revision C.01,

 ----------------------------------------------------------------------
 #t hf aug-cc-pvdz symm=none int=(grid=ultrafine) guess=(read,tcheck) s
 table=(opt,rrhf)
 ----------------------------------------------------------------------
 -----
 title
 -----
 Symbolic Z-matrix:
 Charge =  0 Multiplicity = 1

 SCF Done:  E(RHF) =  -513.771565711     A.U. after   12 cycles
 Normal termination of Gaussian 16 at Wed Apr  9 19:27:42 2025.
 Gaussian 16:  ES64L-G16RevC.01  3-Jul-2019

 ----------------------------------------------------------------------
 #t hf aug-cc-pvdz iop(5/13=1,5/36=2,99/5=2) pseudo=read geom=check gue
 ss=(read,tcheck) scf=(maxcycle=1)
 ----------------------------------------------------------------------
 -----
 title
 -----
 Structure from the checkpoint file:  "HB300SPXx10_1163_4.21_0.90_water_methanethiol_dimer_mol1.chk"
 Charge =  0 Multiplicity = 1

                         Standard orientation:
 ---------------------------------------------------------------------
 Center     Atomic      Atomic             Coordinates (Angstroms)
 Number     Number       Type             X           Y           Z
 ---------------------------------------------------------------------
      1          8           0       -2.165103    0.116010    0.054541
      2          1           0       -1.352051   -0.389377   -0.088910
      3          1           0       -2.869888   -0.427812   -0.303335
      4          1           0       -0.045134    1.533577    0.493944
      5          1           0        0.861727    1.504674   -1.022237
      6          1           0        1.743600    1.501935    0.511714
      7          1           0        0.807045   -0.902983    1.239081
      8          6           0        0.847579    1.155298    0.006446
      9         16           0        0.818128   -0.667493   -0.081579
 ---------------------------------------------------------------------

 SCF Done:  E(RHF) =  -513.958736925     A.U. after    2 cycles

 The electronic state is 1-A.
 Alpha  occ. eigenvalues --  -93.96085 -20.53486 -11.27211  -8.24220  -6.22068
 Alpha  occ. eigenvalues --   -6.21922  -6.21722  -1.41917  -1.07207  -0.89438
 Alpha  occ. eigenvalues --   -0.70061  -0.62355  -0.60075  -0.56165  -0.54421
 Alpha  occ. eigenvalues --   -0.48074  -0.47641  -0.37984
 Alpha virt. eigenvalues --    0.03717   0.04340   0.04648   0.05903   0.07128
 Alpha virt. eigenvalues --    0.09837   0.11076   0.11737   0.14289   0.14762
 Alpha virt. eigenvalues --    0.15860   0.16813   0.18061   0.21258   0.21600

 Mulliken charges:
               1
     1  O   -0.903223
     2  H    0.714862
     3  H    0.355598
     4  H    0.116401
     5  H    0.197793
     6  H    0.119973
     7  H    0.359644
     8  C   -0.594305
     9  S   -0.366744
 Sum of Mulliken charges =  -0.00000

 Dipole moment (field-independent basis, Debye):
    X=              0.6984    Y=             -0.1319    Z=              0.1303  Tot=              0.7225

 Test job not archived.
 1\1\GINC-SE229\SP\RHF\Aug-CC-pVDZ\C1H6O1S1\OHZDE\09-Apr-2025\0\\#t hf
 aug-cc-pvdz iop(5/13=1,5/36=2,99/5=2) pseudo=read geom=check guess=(re
 ad,tcheck) scf=(maxcycle=1)\\title\\0,1\O,0,-0.58582535,-1.65985485,-1
 .57348405\H,0,-0.07487288,-1.34797585,-0.81275631\H,0,-0.15829821,-2.4
 72369,-1.85201796\H,0,-1.21880574,0.75670302,-0.89789336\H,0,0.2809214
 2,1.68409069,-1.01106392\H,0,-0.88132155,2.07390668,0.26484697\H,0,-0.
 58163582,-0.2909416,1.49265436\C,0,-0.45295779,1.2698347,-0.32530439\S
 ,0,0.45732844,0.09958082,0.73915246\\Version=ES64L-G16RevC.01\State=1-

 Normal termination of Gaussian 16 at Wed Apr  9 19:27:44 2025.
