 Gaussian 16, Revision C.01,

 ----------------------------------------------------------------------
 #t hf aug-cc-pvdz symm=none int=(grid=ultrafine) guess=(read,tcheck) s
 table=(opt,rrhf)
 ----------------------------------------------------------------------
 -----
 title
 -----
 Symbolic Z-matrix:
 Charge =  0 Multiplicity = 1

 SCF Done:  E(RHF) =  -991.412681883     A.U. after   12 cycles

 1\1\GINC-SE060\Stability\RHF\Aug-CC-pVDZ\C5H12S2\OHZDE\09-Apr-2025\0\\
 #t hf aug-cc-pvdz symm=none int=(grid=ultrafine) guess=(read,tcheck) s
 table=(opt,rrhf)\\title\\0,1\H,0,2.75511322,-2.75302781,-0.03281769\H,
 0,2.23328443,-3.6609344,1.39160682\H,0,2.88304587,-2.02859561,1.588775
 53\H,0,0.87227038,-0.86572365,0.25189781\C,0,2.28978938,-2.67174858,0.
 94522466\S,0,0.57786237,-2.06107277,0.80693494\H,0,-0.68542348,-0.2801
 7217,-1.76044686\H,0,-0.78033672,1.19034949,-2.73980195\H,0,-2.9229300
 3,0.52439478,-1.27918278\H,0,-0.63645136,2.89319328,0.85362125\H,0,-2.

 Normal termination of Gaussian 16 at Wed Apr  9 04:11:18 2025.
 Gaussian 16:  ES64L-G16RevC.01  3-Jul-2019

 ----------------------------------------------------------------------
 #t hf aug-cc-pvdz iop(5/13=1,5/36=2,99/5=2) pseudo=read geom=check gue
 ss=(read,tcheck) scf=(maxcycle=1)
 ----------------------------------------------------------------------
 -----
 title
 -----
 Structure from the checkpoint file:  "HB300SPXx10_1206_4.25_1.05_methanethiol_tetrahydrothiophene_dimer_mol1.chk"
 Charge =  0 Multiplicity = 1

                         Standard orientation:
 ---------------------------------------------------------------------
 Center     Atomic      Atomic             Coordinates (Angstroms)
 Number     Number       Type             X           Y           Z
 ---------------------------------------------------------------------
      1          1           0        3.699902    1.163155   -0.818287
      2          1           0        4.583568   -0.156983   -0.042430
      3          1           0        3.685208    0.994161    0.954270
      4          1           0        1.299676    0.267670   -0.027656
      5          6           0        3.690013    0.459346    0.008910
      6         16           0        2.265859   -0.672065   -0.111253
      7          1           0       -0.595440   -0.078595   -1.790452
      8          1           0       -2.113777    0.800065   -2.021072
      9          1           0       -2.259973   -1.790104   -1.359816
     10          1           0       -2.297001    0.349089    1.928120
     11          1           0       -3.299545   -0.653842   -0.502662
     12          1           0       -0.556927    0.063403    2.069739
     13          1           0       -2.129431   -1.957910    1.237727
     14          1           0       -0.585221   -1.683307    0.443071
     15         16           0       -1.088096    1.361639    0.093779
     16          6           0       -1.513573    0.246694   -1.304017
     17          6           0       -2.260903   -0.932477   -0.686855
     18          6           0       -1.564690   -1.245237    0.636705
     19          6           0       -1.396722    0.080011    1.380097
 ---------------------------------------------------------------------

 SCF Done:  E(RHF) =  -991.753065942     A.U. after    2 cycles

 The electronic state is 1-A.
 Alpha  occ. eigenvalues --  -93.93882 -93.93386 -11.26307 -11.26282 -11.26258
 Alpha  occ. eigenvalues --  -11.24109 -11.24024  -8.21983  -8.21505  -6.19846
 Alpha  occ. eigenvalues --   -6.19705  -6.19482  -6.19308  -6.19190  -6.18968
 Alpha  occ. eigenvalues --   -1.13982  -1.05354  -0.99140  -0.98592  -0.87911
 Alpha  occ. eigenvalues --   -0.80099  -0.79795  -0.66806  -0.65202  -0.61011
 Alpha  occ. eigenvalues --   -0.60891  -0.59351  -0.55982  -0.52892  -0.51612
 Alpha  occ. eigenvalues --   -0.50368  -0.48850  -0.48812  -0.46089  -0.43285
 Alpha  occ. eigenvalues --   -0.35710  -0.34210
 Alpha virt. eigenvalues --    0.03406   0.03718   0.03887   0.04225   0.05336
 Alpha virt. eigenvalues --    0.05753   0.06082   0.06599   0.07963   0.08293
 Alpha virt. eigenvalues --    0.08563   0.09455   0.11784   0.13016   0.13454

 Mulliken charges:
               1
     1  H    0.145023
     2  H    0.142510
     3  H    0.140749
     4  H    0.476821
     5  C   -0.808217
     6  S   -0.108112
     7  H    0.114473
     8  H    0.150274
     9  H    0.132515
    10  H    0.126902
    11  H    0.102728
    12  H    0.126715
    13  H    0.152470
    14  H    0.092667
    15  S    0.333941
    16  C   -0.379793
    17  C   -0.307608
    18  C   -0.212810
    19  C   -0.421250
 Sum of Mulliken charges =   0.00000

 Dipole moment (field-independent basis, Debye):
    X=             -0.4261    Y=             -0.4772    Z=              0.0732  Tot=              0.6439

 Test job not archived.
 1\1\GINC-SE060\SP\RHF\Aug-CC-pVDZ\C5H12S2\OHZDE\09-Apr-2025\0\\#t hf a
 ug-cc-pvdz iop(5/13=1,5/36=2,99/5=2) pseudo=read geom=check guess=(rea
 d,tcheck) scf=(maxcycle=1)\\title\\0,1\H,0,2.75511322,-2.75302781,-0.0
 3281769\H,0,2.23328443,-3.6609344,1.39160682\H,0,2.88304587,-2.0285956
 1,1.58877553\H,0,0.87227038,-0.86572365,0.25189781\C,0,2.28978938,-2.6
 7174858,0.94522466\S,0,0.57786237,-2.06107277,0.80693494\H,0,-0.685423
 48,-0.28017217,-1.76044686\H,0,-0.78033672,1.19034949,-2.73980195\H,0,
 -2.92293003,0.52439478,-1.27918278\H,0,-0.63645136,2.89319328,0.853621

 Normal termination of Gaussian 16 at Wed Apr  9 04:11:26 2025.
