 Gaussian 16, Revision C.01,

 ----------------------------------------------------------------------
 #t hf aug-cc-pvdz symm=none int=(grid=ultrafine) guess=(read,tcheck) s
 table=(opt,rrhf)
 ----------------------------------------------------------------------
 -----
 title
 -----
 Symbolic Z-matrix:
 Charge =  0 Multiplicity = 1

 SCF Done:  E(RHF) =  -571.982894375     A.U. after   12 cycles
 Normal termination of Gaussian 16 at Wed Apr  9 19:30:05 2025.
 Gaussian 16:  ES64L-G16RevC.01  3-Jul-2019

 ----------------------------------------------------------------------
 #t hf aug-cc-pvdz iop(5/13=1,5/36=2,99/5=2) pseudo=read geom=check gue
 ss=(read,tcheck) scf=(maxcycle=1)
 ----------------------------------------------------------------------
 -----
 title
 -----
 Structure from the checkpoint file:  "HB300SPXx10_132_1.14_0.85_sulfane_trimethylamine_dimer_mol1.chk"
 Charge =  0 Multiplicity = 1

                         Standard orientation:
 ---------------------------------------------------------------------
 Center     Atomic      Atomic             Coordinates (Angstroms)
 Number     Number       Type             X           Y           Z
 ---------------------------------------------------------------------
      1          1           0       -0.876284    0.029902    0.000000
      2          1           0       -2.501555   -1.079564    0.000000
      3         16           0       -2.231879    0.233641    0.000000
      4          1           0        2.303987   -0.823800    1.303193
      5          1           0        0.809107   -0.263750    2.080506
      6          1           0        0.820557   -1.791622    1.197590
      7          1           0        0.820557   -1.791622   -1.197590
      8          1           0        2.303987   -0.823800   -1.303193
      9          1           0        0.809107   -0.263750   -2.080506
     10          1           0        2.303775    1.421250    0.000000
     11          1           0        0.814983    1.813459   -0.882789
     12          6           0        1.208796   -0.774285    1.205875
     13          7           0        0.789791   -0.079806    0.000000
     14          6           0        1.208796   -0.774285   -1.205875
     15          6           0        1.208796    1.311941    0.000000
     16          1           0        0.814983    1.813459    0.882789
 ---------------------------------------------------------------------

 SCF Done:  E(RHF) =  -572.239336425     A.U. after    2 cycles

 The electronic state is 1-A'.
 Alpha  occ. eigenvalues --  -93.91081 -15.51119 -11.26602 -11.26598 -11.26581
 Alpha  occ. eigenvalues --   -8.19357  -6.17236  -6.17109  -6.16900  -1.25069
 Alpha  occ. eigenvalues --   -0.98018  -0.97943  -0.97681  -0.84156  -0.69771
 Alpha  occ. eigenvalues --   -0.67287  -0.67260  -0.57471  -0.57374  -0.55640
 Alpha  occ. eigenvalues --   -0.54450  -0.54026  -0.54009  -0.48236  -0.38478
 Alpha  occ. eigenvalues --   -0.35300
 Alpha virt. eigenvalues --    0.03258   0.04253   0.04452   0.04715   0.05899
 Alpha virt. eigenvalues --    0.06111   0.06319   0.06892   0.07252   0.09883
 Alpha virt. eigenvalues --    0.10376   0.12549   0.13843   0.14621   0.14814

 Mulliken charges:
               1
     1  H    0.623294
     2  H    0.181910
     3  S   -0.604785
     4  H    0.195633
     5  H    0.122947
     6  H    0.118482
     7  H    0.118482
     8  H    0.195633
     9  H    0.122947
    10  H    0.172981
    11  H    0.122663
    12  C   -0.307044
    13  N   -0.536212
    14  C   -0.307044
    15  C   -0.342551
    16  H    0.122663
 Sum of Mulliken charges =  -0.00000

 Dipole moment (field-independent basis, Debye):
    X=              3.5545    Y=             -1.0298    Z=              0.0000  Tot=              3.7007

 Test job not archived.
 1\1\GINC-SE212\SP\RHF\Aug-CC-pVDZ\C3H11N1S1\OHZDE\09-Apr-2025\0\\#t hf
  aug-cc-pvdz iop(5/13=1,5/36=2,99/5=2) pseudo=read geom=check guess=(r
 ead,tcheck) scf=(maxcycle=1)\\title\\0,1\H,0,0.06719299,0.97177334,0.\
 H,0,1.32304535,2.48678341,0.\S,0,-0.00955285,2.34044335,0.\H,0,0.62133
 443,-2.2741258,-1.30319342\H,0,0.20278049,-0.73362686,-2.08050641\H,0,
 1.72296174,-0.88716378,-1.19759028\H,0,1.72296174,-0.88716378,1.197590
 28\H,0,0.62133443,-2.2741258,1.30319342\H,0,0.20278049,-0.73362686,2.0
 8050641\H,0,-1.61395905,-2.06505937,0.\H,0,-1.86596709,-0.546237,0.882

 Normal termination of Gaussian 16 at Wed Apr  9 19:30:09 2025.
