 Gaussian 16, Revision C.01,

 ----------------------------------------------------------------------
 #t hf aug-cc-pvdz symm=none int=(grid=ultrafine) guess=(read,tcheck) s
 table=(opt,rrhf)
 ----------------------------------------------------------------------
 -----
 title
 -----
 Symbolic Z-matrix:
 Charge =  0 Multiplicity = 1

 SCF Done:  E(RHF) =  -783.967659822     A.U. after   15 cycles
 Normal termination of Gaussian 16 at Wed Apr  9 19:33:34 2025.
 Gaussian 16:  ES64L-G16RevC.01  3-Jul-2019

 ----------------------------------------------------------------------
 #t hf aug-cc-pvdz iop(5/13=1,5/36=2,99/5=2) pseudo=read geom=check gue
 ss=(read,tcheck) scf=(maxcycle=1)
 ----------------------------------------------------------------------
 -----
 title
 -----
 Structure from the checkpoint file:  "HB300SPXx10_1470_5.09_2.00_nitromethane_phosphineF2_dimer_mol1.chk"
 Charge =  0 Multiplicity = 1

                         Standard orientation:
 ---------------------------------------------------------------------
 Center     Atomic      Atomic             Coordinates (Angstroms)
 Number     Number       Type             X           Y           Z
 ---------------------------------------------------------------------
      1          1           0       -3.100846    1.834174    0.019299
      2          1           0       -4.292513    1.110105   -1.086998
      3          1           0       -4.582899    1.093987    0.695677
      4          6           0       -3.849861    1.055851   -0.099642
      5          7           0       -3.114059   -0.239787    0.002841
      6          8           0       -3.126088   -0.816968    1.071483
      7          8           0       -2.513527   -0.614146   -0.993767
      8         15           0        2.885801   -0.284904   -0.387470
      9          9           0        4.259418    0.039780    0.365328
     10          9           0        1.989516    0.884969    0.258609
     11          1           0        2.463350   -1.295148    0.524881
 ---------------------------------------------------------------------

 SCF Done:  E(RHF) =  -784.428501775     A.U. after    2 cycles

 The electronic state is 1-A.
 Alpha  occ. eigenvalues --  -84.41473 -26.48450 -26.48201 -20.59929 -20.59416
 Alpha  occ. eigenvalues --  -15.79328 -11.32308  -6.87134  -4.39893  -4.39201
 Alpha  occ. eigenvalues --   -4.38203  -1.67941  -1.62424  -1.57901  -1.51558
 Alpha  occ. eigenvalues --   -1.13178  -0.89742  -0.88508  -0.78227  -0.76572
 Alpha  occ. eigenvalues --   -0.76125  -0.71186  -0.71018  -0.69330  -0.65035
 Alpha  occ. eigenvalues --   -0.63824  -0.62127  -0.61475  -0.57994  -0.50099
 Alpha  occ. eigenvalues --   -0.49115  -0.45642  -0.38833
 Alpha virt. eigenvalues --    0.02916   0.04453   0.05110   0.05246   0.06767
 Alpha virt. eigenvalues --    0.07137   0.07800   0.09132   0.09260   0.13113
 Alpha virt. eigenvalues --    0.13397   0.13992   0.15197   0.16630   0.16840

 Mulliken charges:
               1
     1  H    0.236484
     2  H    0.169082
     3  H    0.136541
     4  C   -0.221522
     5  N    2.203122
     6  O   -1.247125
     7  O   -1.277189
     8  P    1.426535
     9  F   -0.746247
    10  F   -0.756500
    11  H    0.076819
 Sum of Mulliken charges =  -0.00000

 Dipole moment (field-independent basis, Debye):
    X=             -2.4525    Y=              1.8916    Z=             -0.7113  Tot=              3.1779

 Test job not archived.
 1\1\GINC-SE117\SP\RHF\Aug-CC-pVDZ\C1H4F2N1O2P1\OHZDE\09-Apr-2025\0\\#t
  hf aug-cc-pvdz iop(5/13=1,5/36=2,99/5=2) pseudo=read geom=check guess
 =(read,tcheck) scf=(maxcycle=1)\\title\\0,1\H,0,0.49481138,0.55069733,
 -2.50359179\H,0,-1.08891031,0.71291216,-3.29967626\H,0,-0.00441746,2.1
 4812453,-3.13671373\C,0,-0.34098337,1.21704881,-2.69950341\N,0,-0.9468
 7558,1.51662809,-1.36768821\O,0,-0.63929751,2.55888018,-0.82511637\O,0
 ,-1.68734525,0.66720154,-0.89420145\P,0,0.53758662,-1.84379635,3.39220
 852\F,0,1.66605941,-2.16644282,4.47912934\F,0,1.50560019,-1.46508191,2

 Normal termination of Gaussian 16 at Wed Apr  9 19:33:37 2025.
