 Gaussian 16, Revision C.01,

 ----------------------------------------------------------------------
 #t hf aug-cc-pvdz symm=none int=(grid=ultrafine) guess=(read,tcheck) s
 table=(opt,rrhf)
 ----------------------------------------------------------------------
 -----
 title
 -----
 Symbolic Z-matrix:
 Charge =  0 Multiplicity = 1

 SCF Done:  E(RHF) =  -1037.68389531     A.U. after   15 cycles
 Normal termination of Gaussian 16 at Wed Apr  9 19:34:18 2025.
 Gaussian 16:  ES64L-G16RevC.01  3-Jul-2019

 ----------------------------------------------------------------------
 #t hf aug-cc-pvdz iop(5/13=1,5/36=2,99/5=2) pseudo=read geom=check gue
 ss=(read,tcheck) scf=(maxcycle=1)
 ----------------------------------------------------------------------
 -----
 title
 -----
 Structure from the checkpoint file:  "HB300SPXx10_1471_5.10_0.80_phosphaalkene_phosphineF2_dimer_mol1.chk"
 Charge =  0 Multiplicity = 1

                         Standard orientation:
 ---------------------------------------------------------------------
 Center     Atomic      Atomic             Coordinates (Angstroms)
 Number     Number       Type             X           Y           Z
 ---------------------------------------------------------------------
      1          1           0        1.096271    2.994128   -0.607939
      2          1           0        0.235563    2.126223    0.664706
      3          1           0        2.001724    2.266264    0.718332
      4          1           0        1.538560   -2.076387   -1.514273
      5          1           0        0.553842   -1.241168    2.010253
      6          1           0        2.449583   -2.508502   -0.062486
      7          1           0        0.702857   -2.695548   -0.082738
      8          1           0        1.169531    0.412326    1.996239
      9          1           0        2.281885   -0.959837    2.027055
     10         15           0        1.295713    0.605063   -0.975810
     11          6           0        1.368626   -0.667031    0.121633
     12          6           0        1.521677   -2.059389   -0.426019
     13          6           0        1.338105   -0.589840    1.616747
     14          6           0        1.142140    2.137403    0.061927
     15         15           0       -1.483720   -0.313191   -0.211643
     16          9           0       -3.081695   -0.449601   -0.209481
     17          9           0       -1.364602    0.878800    0.852560
     18          1           0       -1.416337    0.514767   -1.370798
 ---------------------------------------------------------------------

 SCF Done:  E(RHF) =  -1038.12542027     A.U. after    2 cycles

 The electronic state is 1-A.
 Alpha  occ. eigenvalues --  -84.39920 -84.25809 -26.47970 -26.46440 -11.28313
 Alpha  occ. eigenvalues --  -11.24655 -11.24432 -11.23141  -6.85582  -6.73219
 Alpha  occ. eigenvalues --   -4.38477  -4.37866  -4.36930  -4.26168  -4.25242
 Alpha  occ. eigenvalues --   -4.25037  -1.61826  -1.57004  -1.09837  -0.98297
 Alpha  occ. eigenvalues --   -0.96016  -0.88346  -0.85047  -0.71047  -0.70642
 Alpha  occ. eigenvalues --   -0.69399  -0.68973  -0.64263  -0.62555  -0.61904
 Alpha  occ. eigenvalues --   -0.60784  -0.60289  -0.57314  -0.56474  -0.55826
 Alpha  occ. eigenvalues --   -0.55451  -0.52858  -0.47312  -0.38567  -0.35383
 Alpha  occ. eigenvalues --   -0.31318
 Alpha virt. eigenvalues --    0.03429   0.03837   0.04319   0.04467   0.05843
 Alpha virt. eigenvalues --    0.06163   0.06484   0.06952   0.07999   0.08453
 Alpha virt. eigenvalues --    0.09288   0.10284   0.10653   0.11437   0.11899

 Mulliken charges:
               1
     1  H   -0.050050
     2  H    0.144506
     3  H    0.113246
     4  H    0.143045
     5  H    0.225582
     6  H    0.228921
     7  H    0.238216
     8  H    0.083445
     9  H    0.184430
    10  P    0.996964
    11  C   -0.344014
    12  C   -0.531010
    13  C   -0.500620
    14  C   -0.810595
    15  P    1.564701
    16  F   -0.795353
    17  F   -0.940426
    18  H    0.049012
 Sum of Mulliken charges =  -0.00000

 Dipole moment (field-independent basis, Debye):
    X=              1.9773    Y=             -0.2400    Z=              0.2606  Tot=              2.0088

 Test job not archived.
 1\1\GINC-SE340\SP\RHF\Aug-CC-pVDZ\C4H10F2P2\OHZDE\09-Apr-2025\0\\#t hf
  aug-cc-pvdz iop(5/13=1,5/36=2,99/5=2) pseudo=read geom=check guess=(r
 ead,tcheck) scf=(maxcycle=1)\\title\\0,1\H,0,-0.66372889,3.26375392,-1
 .41484082\H,0,0.57607353,2.07688321,-1.82463407\H,0,-0.55842324,2.6448
 712,-3.06242126\H,0,-2.87100416,-1.40911587,-1.55416728\H,0,0.42715494
 ,-1.23076192,-3.33739031\H,0,-2.60862974,-1.75549695,-3.26751243\H,0,-
 1.47646146,-2.36750684,-2.07165071\H,0,0.4157342,0.51539066,-3.5906339
 2\H,0,-0.67072928,-0.53226666,-4.50884988\P,0,-1.6570918,1.05342876,-1

 Normal termination of Gaussian 16 at Wed Apr  9 19:34:25 2025.
