 Gaussian 16, Revision C.01,

 ----------------------------------------------------------------------
 #t hf aug-cc-pvdz symm=none int=(grid=ultrafine) guess=(read,tcheck) s
 table=(opt,rrhf)
 ----------------------------------------------------------------------
 -----
 title
 -----
 Symbolic Z-matrix:
 Charge =  0 Multiplicity = 1

 SCF Done:  E(RHF) =  -797.396218605     A.U. after   10 cycles
 Normal termination of Gaussian 16 at Wed Apr  9 04:10:20 2025.
 Gaussian 16:  ES64L-G16RevC.01  3-Jul-2019

 ----------------------------------------------------------------------
 #t hf aug-cc-pvdz iop(5/13=1,5/36=2,99/5=2) pseudo=read geom=check gue
 ss=(read,tcheck) scf=(maxcycle=1)
 ----------------------------------------------------------------------
 -----
 title
 -----
 Structure from the checkpoint file:  "HB300SPXx10_1225_4.27_1.00_sulfane_sulfane_dimer_mol1.chk"
 Charge =  0 Multiplicity = 1

                         Standard orientation:
 ---------------------------------------------------------------------
 Center     Atomic      Atomic             Coordinates (Angstroms)
 Number     Number       Type             X           Y           Z
 ---------------------------------------------------------------------
      1          1           0       -0.736675   -0.079470   -0.111026
      2          1           0       -2.128928    1.263047    0.083203
      3         16           0       -2.077891   -0.074211   -0.002751
      4          1           0        1.954849    0.374419    1.219059
      5          1           0        2.152459    1.133867   -0.555007
      6         16           0        2.000285   -0.094030   -0.037013
 ---------------------------------------------------------------------

 SCF Done:  E(RHF) =  -797.522196442     A.U. after    2 cycles

 The electronic state is 1-A.
 Alpha  occ. eigenvalues --  -93.97544 -93.95337  -8.25624  -8.23441  -6.23495
 Alpha  occ. eigenvalues --   -6.23380  -6.23133  -6.21317  -6.21202  -6.20955
 Alpha  occ. eigenvalues --   -1.03153  -1.00926  -0.60830  -0.58951  -0.52055
 Alpha  occ. eigenvalues --   -0.50179  -0.40269  -0.38292
 Alpha virt. eigenvalues --    0.03010   0.05125   0.05663   0.06835   0.10852
 Alpha virt. eigenvalues --    0.11503   0.11879   0.13543   0.14112   0.15022
 Alpha virt. eigenvalues --    0.17728   0.19835   0.20365   0.21370   0.25091

 Mulliken charges:
               1
     1  H    0.300256
     2  H    0.256797
     3  S   -0.525053
     4  H    0.292024
     5  H    0.284022
     6  S   -0.608046
 Sum of Mulliken charges =   0.00000

 Dipole moment (field-independent basis, Debye):
    X=              1.3538    Y=              1.8887    Z=              0.4469  Tot=              2.3664

 Test job not archived.
 1\1\GINC-SE402\SP\RHF\Aug-CC-pVDZ\H4S2\OHZDE\09-Apr-2025\0\\#t hf aug-
 cc-pvdz iop(5/13=1,5/36=2,99/5=2) pseudo=read geom=check guess=(read,t
 check) scf=(maxcycle=1)\\title\\0,1\H,0,0.53139832,0.64498716,-0.29055
 053\H,0,2.23879772,0.67266195,0.63813986\S,0,1.60273769,1.45777787,-0.
 24349168\H,0,-1.90612452,-0.48526527,1.1238246\H,0,-1.1381538,-2.00082
 436,0.18764989\S,0,-1.75261837,-0.85887592,-0.15526795\\Version=ES64L-
 G16RevC.01\State=1-A\HF=-797.5221964\RMSD=5.232e-03\Dipole=-0.1500878,
 -0.688124,0.6088696\Quadrupole=-1.153498,0.2873885,0.8661095,-1.979589

 Normal termination of Gaussian 16 at Wed Apr  9 04:10:22 2025.
