 Gaussian 16, Revision C.01,

 ----------------------------------------------------------------------
 #t hf aug-cc-pvdz symm=none int=(grid=ultrafine) guess=(read,tcheck) s
 table=(opt,rrhf)
 ----------------------------------------------------------------------
 -----
 title
 -----
 Symbolic Z-matrix:
 Charge =  0 Multiplicity = 1

 SCF Done:  E(RHF) =  -936.859765666     A.U. after   11 cycles
 Normal termination of Gaussian 16 at Wed Apr  9 19:29:47 2025.
 Gaussian 16:  ES64L-G16RevC.01  3-Jul-2019

 ----------------------------------------------------------------------
 #t hf aug-cc-pvdz iop(5/13=1,5/36=2,99/5=2) pseudo=read geom=check gue
 ss=(read,tcheck) scf=(maxcycle=1)
 ----------------------------------------------------------------------
 -----
 title
 -----
 Structure from the checkpoint file:  "HB300SPXx10_1325_4.37_1.00_hydrogenchloride_dimethylsulfide_dimer_mol1.chk"
 Charge =  0 Multiplicity = 1

                         Standard orientation:
 ---------------------------------------------------------------------
 Center     Atomic      Atomic             Coordinates (Angstroms)
 Number     Number       Type             X           Y           Z
 ---------------------------------------------------------------------
      1          1           0       -1.043413   -0.000003   -0.439393
      2         17           0       -2.277761   -0.000002    0.040223
      3          1           0        0.421406   -1.354202    1.227979
      4          1           0        2.192409   -1.365704    1.004403
      5          1           0        1.149365   -2.299390   -0.082719
      6          1           0        1.149355    2.299393   -0.082721
      7          1           0        2.192400    1.365710    1.004406
      8          1           0        0.421395    1.354203    1.227976
      9          6           0        1.229193   -1.385386    0.499872
     10         16           0        1.093047    0.000001   -0.658887
     11          6           0        1.229186    1.385388    0.499872
 ---------------------------------------------------------------------

 SCF Done:  E(RHF) =  -937.091405530     A.U. after    2 cycles

 The electronic state is 1-A.
 Alpha  occ. eigenvalues -- -105.55104 -93.96381 -11.27637 -11.27608 -10.59893
 Alpha  occ. eigenvalues --   -8.24506  -7.76852  -7.76514  -7.76512  -6.22323
 Alpha  occ. eigenvalues --   -6.22167  -6.21981  -1.10787  -1.03982  -0.97558
 Alpha  occ. eigenvalues --   -0.84634  -0.64360  -0.62693  -0.60276  -0.59278
 Alpha  occ. eigenvalues --   -0.58961  -0.52258  -0.46322  -0.45907  -0.45905
 Alpha  occ. eigenvalues --   -0.36869
 Alpha virt. eigenvalues --    0.03299   0.03753   0.04749   0.05409   0.06908
 Alpha virt. eigenvalues --    0.07584   0.07977   0.09558   0.12571   0.12683
 Alpha virt. eigenvalues --    0.15076   0.15301   0.15314   0.15976   0.16738

 Mulliken charges:
               1
     1  H    0.410450
     2  Cl  -0.258019
     3  H    0.117972
     4  H    0.169712
     5  H    0.161913
     6  H    0.161914
     7  H    0.169712
     8  H    0.117973
     9  C   -0.551801
    10  S    0.051976
    11  C   -0.551802
 Sum of Mulliken charges =  -0.00000

 Dipole moment (field-independent basis, Debye):
    X=              2.7943    Y=              0.0000    Z=              1.2757  Tot=              3.0717

 Test job not archived.
 1\1\GINC-SE159\SP\RHF\Aug-CC-pVDZ\C2H7Cl1S1\OHZDE\09-Apr-2025\0\\#t hf
  aug-cc-pvdz iop(5/13=1,5/36=2,99/5=2) pseudo=read geom=check guess=(r
 ead,tcheck) scf=(maxcycle=1)\\title\\0,1\H,0,-0.09169332,-0.01707414,-
 1.03147385\Cl,0,0.64323048,-0.44620369,-2.04605842\H,0,1.55356891,0.78
 935302,0.81310355\H,0,0.90160554,1.22580867,2.41654401\H,0,0.66289922,
 2.30598018,1.03169959\H,0,-1.38978239,-1.80164301,1.28216932\H,0,-0.31
 756517,-1.2138862,2.56530648\H,0,0.34466311,-1.62978856,0.96060974\C,0
 ,0.7322326,1.26702485,1.34307445\S,0,-0.84143477,0.4765645,0.91963991\

 Normal termination of Gaussian 16 at Wed Apr  9 19:29:50 2025.
