 Gaussian 16, Revision C.01,

 ----------------------------------------------------------------------
 #t hf aug-cc-pvdz symm=none int=(grid=ultrafine) guess=(read,tcheck) s
 table=(opt,rrhf)
 ----------------------------------------------------------------------
 -----
 title
 -----
 Symbolic Z-matrix:
 Charge =  0 Multiplicity = 1

 SCF Done:  E(RHF) =  -645.414128236     A.U. after   14 cycles
 Normal termination of Gaussian 16 at Wed Apr  9 04:10:49 2025.
 Gaussian 16:  ES64L-G16RevC.01  3-Jul-2019

 ----------------------------------------------------------------------
 #t hf aug-cc-pvdz iop(5/13=1,5/36=2,99/5=2) pseudo=read geom=check gue
 ss=(read,tcheck) scf=(maxcycle=1)
 ----------------------------------------------------------------------
 -----
 title
 -----
 Structure from the checkpoint file:  "HB300SPXx10_121_1.13_0.80_sulfane_pyridine_dimer_mol1.chk"
 Charge =  0 Multiplicity = 1

                         Standard orientation:
 ---------------------------------------------------------------------
 Center     Atomic      Atomic             Coordinates (Angstroms)
 Number     Number       Type             X           Y           Z
 ---------------------------------------------------------------------
      1          1           0        1.748659   -0.306569   -0.025371
      2          1           0        3.205965   -0.040633    1.252645
      3         16           0        3.066625    0.011280   -0.079850
      4          1           0       -2.919985   -1.819405   -0.001561
      5          1           0       -0.481112   -2.292186   -0.002020
      6          6           0       -2.625495    0.316615    0.001358
      7          6           0       -2.208197   -1.007107   -0.000098
      8          6           0       -0.845193   -1.272483   -0.000190
      9          7           0        0.081641   -0.315164    0.001336
     10          6           0       -0.325998    0.953535    0.002531
     11          6           0       -1.665761    1.318871    0.002651
     12          1           0        0.455363    1.703629    0.002616
     13          1           0       -1.944433    2.362295    0.003320
     14          1           0       -3.678079    0.561954    0.001113
 ---------------------------------------------------------------------

 SCF Done:  E(RHF) =  -645.732502933     A.U. after    2 cycles

 The electronic state is 1-A.
 Alpha  occ. eigenvalues --  -93.90893 -15.52475 -11.29968 -11.29712 -11.28279
 Alpha  occ. eigenvalues --  -11.26395 -11.26339  -8.19190  -6.17070  -6.16945
 Alpha  occ. eigenvalues --   -6.16734  -1.28497  -1.11236  -1.05879  -0.97849
 Alpha  occ. eigenvalues --   -0.89792  -0.88785  -0.76130  -0.70983  -0.67824
 Alpha  occ. eigenvalues --   -0.63935  -0.62994  -0.58598  -0.55638  -0.55361
 Alpha  occ. eigenvalues --   -0.49559  -0.42603  -0.42287  -0.37514  -0.35179
 Alpha virt. eigenvalues --    0.02655   0.03366   0.03804   0.05466   0.05566
 Alpha virt. eigenvalues --    0.06171   0.07374   0.08688   0.08873   0.10033
 Alpha virt. eigenvalues --    0.10667   0.12211   0.12293   0.13181   0.13467

 Mulliken charges:
               1
     1  H    0.552502
     2  H    0.219058
     3  S   -0.670182
     4  H   -0.190686
     5  H   -0.234857
     6  C    0.118701
     7  C    0.668207
     8  C   -0.609448
     9  N    0.818933
    10  C   -0.706456
    11  C    0.709855
    12  H   -0.317591
    13  H   -0.190305
    14  H   -0.167733
 Sum of Mulliken charges =  -0.00000

 Dipole moment (field-independent basis, Debye):
    X=             -5.4171    Y=              0.2368    Z=              0.8198  Tot=              5.4839

 Test job not archived.
 1\1\GINC-SE396\SP\RHF\Aug-CC-pVDZ\C5H7N1S1\OHZDE\09-Apr-2025\0\\#t hf
 aug-cc-pvdz iop(5/13=1,5/36=2,99/5=2) pseudo=read geom=check guess=(re
 ad,tcheck) scf=(maxcycle=1)\\title\\0,1\H,0,1.25021154,1.5960457,0.136
 91261\H,0,3.15091491,1.84193998,0.53016902\S,0,2.02337536,2.53859467,0
 .73260516\H,0,-1.60975147,-1.54206935,-2.32445242\H,0,-0.07136911,0.40
 758123,-2.26226936\C,0,-1.48247042,-1.85998951,-0.19559345\C,0,-1.1858
 7039,-1.2130129,-1.38715985\C,0,-0.32596054,-0.123229,-1.3535473\N,0,0
 .22847131,0.33072074,-0.23015045\C,0,-0.06076346,-0.29501047,0.9102755

 Normal termination of Gaussian 16 at Wed Apr  9 04:10:53 2025.
