 Gaussian 16, Revision C.01,

 ----------------------------------------------------------------------
 #t hf aug-cc-pvdz symm=none int=(grid=ultrafine) guess=(read,tcheck) s
 table=(opt,rrhf)
 ----------------------------------------------------------------------
 -----
 title
 -----
 Symbolic Z-matrix:
 Charge =  0 Multiplicity = 1

 SCF Done:  E(RHF) =  -800.714003199     A.U. after   14 cycles
 Normal termination of Gaussian 16 at Wed Apr  9 19:28:15 2025.
 Gaussian 16:  ES64L-G16RevC.01  3-Jul-2019

 ----------------------------------------------------------------------
 #t hf aug-cc-pvdz iop(5/13=1,5/36=2,99/5=2) pseudo=read geom=check gue
 ss=(read,tcheck) scf=(maxcycle=1)
 ----------------------------------------------------------------------
 -----
 title
 -----
 Structure from the checkpoint file:  "HB300SPXx10_1102_4.14_0.85_Nmethylacetamide_tetrahydrothiophene_dimer_mol1.chk"
 Charge =  0 Multiplicity = 1

                         Standard orientation:
 ---------------------------------------------------------------------
 Center     Atomic      Atomic             Coordinates (Angstroms)
 Number     Number       Type             X           Y           Z
 ---------------------------------------------------------------------
      1          6           0       -2.237286   -1.631224   -0.147039
      2          1           0       -2.174766   -2.119061    0.824388
      3          1           0       -1.404360   -1.950905   -0.769873
      4          1           0       -3.170151   -1.947876   -0.609572
      5          6           0       -2.289144   -0.130994    0.063022
      6          8           0       -3.174974    0.395089    0.716921
      7          7           0       -1.295451    0.573767   -0.535361
      8          1           0       -0.533859    0.070454   -0.968620
      9          6           0       -1.192911    2.011363   -0.403863
     10          1           0       -2.190036    2.427934   -0.294954
     11          1           0       -0.609038    2.305050    0.472555
     12          1           0       -0.723592    2.426879   -1.293197
     13          1           0        1.393739    1.625561   -0.842286
     14          1           0        3.003442    1.020148   -1.239784
     15          1           0        2.508631    1.786389    1.290889
     16          1           0        1.965307   -2.044431    0.922388
     17          1           0        3.409647    0.299610    1.012336
     18          1           0        0.222833   -1.782058    0.797709
     19          1           0        1.581454   -0.292613    2.557927
     20          1           0        0.405226    0.505633    1.519341
     21         16           0        1.403515   -0.789512   -1.068985
     22          6           0        2.122970    0.847742   -0.627253
     23          6           0        2.443866    0.785033    0.865533
     24          6           0        1.344425   -0.047668    1.522738
     25          6           0        1.195952   -1.313517    0.682972
 ---------------------------------------------------------------------

 SCF Done:  E(RHF) =  -801.204761484     A.U. after    2 cycles

 The electronic state is 1-A.
 Alpha  occ. eigenvalues --  -93.94907 -20.49010 -15.50440 -11.34206 -11.27768
 Alpha  occ. eigenvalues --  -11.27591 -11.26157 -11.25311 -11.24966 -11.23753
 Alpha  occ. eigenvalues --   -8.23107  -6.20893  -6.20778  -6.20583  -1.44039
 Alpha  occ. eigenvalues --   -1.22809  -1.15417  -1.01884  -1.00477  -1.00210
 Alpha  occ. eigenvalues --   -0.93945  -0.82188  -0.81388  -0.80390  -0.70252
 Alpha  occ. eigenvalues --   -0.68233  -0.66771  -0.65871  -0.64043  -0.62295
 Alpha  occ. eigenvalues --   -0.59092  -0.58265  -0.56597  -0.56211  -0.55332
 Alpha  occ. eigenvalues --   -0.52914  -0.51581  -0.50328  -0.50301  -0.49816
 Alpha  occ. eigenvalues --   -0.44948  -0.41071  -0.40088  -0.36129
 Alpha virt. eigenvalues --    0.02829   0.02885   0.03523   0.03963   0.04869
 Alpha virt. eigenvalues --    0.05386   0.05565   0.06206   0.06785   0.07666
 Alpha virt. eigenvalues --    0.08447   0.08657   0.09810   0.10355   0.11128

 Mulliken charges:
               1
     1  C   -0.323948
     2  H    0.297040
     3  H    0.126241
     4  H    0.057130
     5  C    0.482841
     6  O   -1.413891
     7  N    0.906115
     8  H    0.202174
     9  C   -0.410444
    10  H   -0.079386
    11  H    0.152844
    12  H    0.188751
    13  H    0.026707
    14  H    0.149437
    15  H    0.133671
    16  H    0.089286
    17  H    0.095088
    18  H    0.051613
    19  H    0.145927
    20  H    0.082924
    21  S    0.109868
    22  C   -0.389084
    23  C   -0.321721
    24  C   -0.175608
    25  C   -0.183572
 Sum of Mulliken charges =  -0.00000

 Dipole moment (field-independent basis, Debye):
    X=              4.3397    Y=             -0.1671    Z=              0.0051  Tot=              4.3429

 Test job not archived.
 1\1\GINC-SE035\SP\RHF\Aug-CC-pVDZ\C7H15N1O1S1\OHZDE\09-Apr-2025\0\\#t
 hf aug-cc-pvdz iop(5/13=1,5/36=2,99/5=2) pseudo=read geom=check guess=
 (read,tcheck) scf=(maxcycle=1)\\title\\0,1\C,0,-2.35790997,-0.53076315
 ,1.51380969\H,0,-2.45888814,0.43106478,2.01406411\H,0,-1.4356415,-1.01
 232631,1.83224394\H,0,-3.20368729,-1.14467685,1.81747472\C,0,-2.435185
 38,-0.3119418,0.01592702\O,0,-3.41358688,0.19433185,-0.50891479\N,0,-1
 .3525984,-0.72916607,-0.68842032\H,0,-0.53292762,-1.03795931,-0.184588
 74\C,0,-1.26500492,-0.56327277,-2.12344447\H,0,-2.26409386,-0.61429593

 Normal termination of Gaussian 16 at Wed Apr  9 19:28:34 2025.
