 Gaussian 16, Revision C.01,

 ----------------------------------------------------------------------
 #t hf aug-cc-pvdz symm=none int=(grid=ultrafine) guess=(read,tcheck) s
 table=(opt,rrhf)
 ----------------------------------------------------------------------
 -----
 title
 -----
 Symbolic Z-matrix:
 Charge =  0 Multiplicity = 1

 SCF Done:  E(RHF) =  -875.459363408     A.U. after   12 cycles
 Normal termination of Gaussian 16 at Wed Apr  9 04:10:27 2025.
 Gaussian 16:  ES64L-G16RevC.01  3-Jul-2019

 ----------------------------------------------------------------------
 #t hf aug-cc-pvdz iop(5/13=1,5/36=2,99/5=2) pseudo=read geom=check gue
 ss=(read,tcheck) scf=(maxcycle=1)
 ----------------------------------------------------------------------
 -----
 title
 -----
 Structure from the checkpoint file:  "HB300SPXx10_1195_4.24_1.00_methanethiol_methanethiol_dimer_mol1.chk"
 Charge =  0 Multiplicity = 1

                         Standard orientation:
 ---------------------------------------------------------------------
 Center     Atomic      Atomic             Coordinates (Angstroms)
 Number     Number       Type             X           Y           Z
 ---------------------------------------------------------------------
      1          1           0       -0.998606    0.918237    1.344825
      2          1           0       -2.760156    0.958142    1.222097
      3          1           0       -1.786109    1.839853    0.040023
      4          1           0       -0.705298   -0.353676   -0.994969
      5          6           0       -1.835406    0.943563    0.651473
      6         16           0       -1.885633   -0.554999   -0.382533
      7          1           0        2.259936   -0.468782    1.745249
      8          1           0        2.214052   -1.719350    0.497883
      9          1           0        0.696807   -1.017074    1.067868
     10          1           0        1.353556    1.447517    0.139333
     11          6           0        1.741211   -0.807842    0.853772
     12         16           0        1.903819    0.403799   -0.498329
 ---------------------------------------------------------------------

 SCF Done:  E(RHF) =  -875.674000873     A.U. after    2 cycles

 The electronic state is 1-A.
 Alpha  occ. eigenvalues --  -93.95640 -93.94384 -11.27203 -11.26943  -8.23721
 Alpha  occ. eigenvalues --   -8.22487  -6.21580  -6.21431  -6.21204  -6.20346
 Alpha  occ. eigenvalues --   -6.20205  -6.19975  -1.07030  -1.05818  -0.89144
 Alpha  occ. eigenvalues --   -0.88463  -0.62761  -0.61794  -0.60662  -0.59372
 Alpha  occ. eigenvalues --   -0.54278  -0.53372  -0.47472  -0.46697  -0.37165
 Alpha  occ. eigenvalues --   -0.36180
 Alpha virt. eigenvalues --    0.03200   0.03780   0.04515   0.04850   0.06953
 Alpha virt. eigenvalues --    0.07206   0.07368   0.09083   0.10439   0.12418
 Alpha virt. eigenvalues --    0.12801   0.13072   0.14660   0.14811   0.15203

 Mulliken charges:
               1
     1  H    0.156752
     2  H    0.128334
     3  H    0.141285
     4  H    0.427934
     5  C   -0.680526
     6  S   -0.154877
     7  H    0.131391
     8  H    0.172590
     9  H    0.132206
    10  H    0.352618
    11  C   -0.640736
    12  S   -0.166972
 Sum of Mulliken charges =  -0.00000

 Dipole moment (field-independent basis, Debye):
    X=              0.5190    Y=              0.9333    Z=              2.0051  Tot=              2.2717

 Test job not archived.
 1\1\GINC-SE049\SP\RHF\Aug-CC-pVDZ\C2H8S2\OHZDE\09-Apr-2025\0\\#t hf au
 g-cc-pvdz iop(5/13=1,5/36=2,99/5=2) pseudo=read geom=check guess=(read
 ,tcheck) scf=(maxcycle=1)\\title\\0,1\H,0,1.48841111,-0.83932977,-0.94
 699875\H,0,2.60301323,-1.84400864,-0.01533608\H,0,2.55978836,-0.100175
 65,0.26866848\H,0,0.07877426,-0.11956038,1.21477831\C,0,1.95766928,-0.
 9705586,0.02469451\S,0,0.71991769,-1.29709475,1.32035013\H,0,-1.574672
 08,0.17827181,-2.45837711\H,0,-2.64457133,0.11060946,-1.05385339\H,0,-
 1.09691261,-0.73892914,-0.99778441\H,0,0.31167708,1.57207986,-1.204710

 Normal termination of Gaussian 16 at Wed Apr  9 04:10:30 2025.
