 Gaussian 16, Revision C.01,

 ----------------------------------------------------------------------
 #t hf aug-cc-pvdz symm=none int=(grid=ultrafine) guess=(read,tcheck) s
 table=(opt,rrhf)
 ----------------------------------------------------------------------
 -----
 title
 -----
 Symbolic Z-matrix:
 Charge =  0 Multiplicity = 1

 SCF Done:  E(RHF) =  -552.795037179     A.U. after   12 cycles
 Normal termination of Gaussian 16 at Wed Apr  9 19:27:46 2025.
 Gaussian 16:  ES64L-G16RevC.01  3-Jul-2019

 ----------------------------------------------------------------------
 #t hf aug-cc-pvdz iop(5/13=1,5/36=2,99/5=2) pseudo=read geom=check gue
 ss=(read,tcheck) scf=(maxcycle=1)
 ----------------------------------------------------------------------
 -----
 title
 -----
 Structure from the checkpoint file:  "HB300SPXx10_1156_4.20_1.05_methanol_methanethiol_dimer_mol1.chk"
 Charge =  0 Multiplicity = 1

                         Standard orientation:
 ---------------------------------------------------------------------
 Center     Atomic      Atomic             Coordinates (Angstroms)
 Number     Number       Type             X           Y           Z
 ---------------------------------------------------------------------
      1          8           0       -1.804561   -0.291381    0.704144
      2          1           0       -0.958890   -0.667217    0.425434
      3          6           0       -2.487594    0.164986   -0.450368
      4          1           0       -3.419907    0.616631   -0.118137
      5          1           0       -1.914791    0.922387   -0.995656
      6          1           0       -2.725463   -0.651685   -1.138137
      7          1           0        0.559911    1.375908    0.826078
      8          1           0        1.154899    1.661680   -0.815982
      9          1           0        2.310817    1.578730    0.518623
     10          1           0        1.823535   -0.996136    1.027839
     11          6           0        1.375025    1.184426    0.135165
     12         16           0        1.517612   -0.600358   -0.217000
 ---------------------------------------------------------------------

 SCF Done:  E(RHF) =  -553.024886354     A.U. after    2 cycles

 The electronic state is 1-A.
 Alpha  occ. eigenvalues --  -93.96175 -20.53538 -11.27568 -11.27527  -8.24253
 Alpha  occ. eigenvalues --   -6.22109  -6.21962  -6.21744  -1.43370  -1.07222
 Alpha  occ. eigenvalues --   -0.92171  -0.89538  -0.68366  -0.62555  -0.61851
 Alpha  occ. eigenvalues --   -0.60428  -0.58725  -0.54627  -0.49612  -0.47816
 Alpha  occ. eigenvalues --   -0.43422  -0.37915
 Alpha virt. eigenvalues --    0.03448   0.04041   0.04488   0.05187   0.06284
 Alpha virt. eigenvalues --    0.07465   0.07809   0.10038   0.10275   0.11538
 Alpha virt. eigenvalues --    0.13294   0.14586   0.14980   0.15825   0.16336

 Mulliken charges:
               1
     1  O   -1.090100
     2  H    0.520843
     3  C    0.433148
     4  H    0.007956
     5  H    0.089636
     6  H    0.092888
     7  H    0.111108
     8  H    0.215505
     9  H    0.093183
    10  H    0.355976
    11  C   -0.615249
    12  S   -0.214895
 Sum of Mulliken charges =  -0.00000

 Dipole moment (field-independent basis, Debye):
    X=              1.0880    Y=              1.2809    Z=             -0.4887  Tot=              1.7502

 Test job not archived.
 1\1\GINC-SE135\SP\RHF\Aug-CC-pVDZ\C2H8O1S1\OHZDE\09-Apr-2025\0\\#t hf
 aug-cc-pvdz iop(5/13=1,5/36=2,99/5=2) pseudo=read geom=check guess=(re
 ad,tcheck) scf=(maxcycle=1)\\title\\0,1\O,0,-1.11765515,0.11430785,-1.
 55067005\H,0,-0.42321658,-0.33845143,-1.05382579\C,0,-0.58571066,1.330
 64039,-2.0459227\H,0,-1.38742324,1.84483596,-2.57168664\H,0,-0.2297527
 6,1.98264255,-1.24138273\H,0,0.23685112,1.16511886,-2.74774471\H,0,-1.
 03970923,0.43371711,1.32636816\H,0,0.43511111,1.3030614,1.77489987\H,0
 ,-0.22792765,0.09807256,2.88511485\H,0,0.21903128,-1.94749027,1.229041

 Normal termination of Gaussian 16 at Wed Apr  9 19:27:49 2025.
