 Gaussian 16, Revision C.01,

 ----------------------------------------------------------------------
 #t hf aug-cc-pvdz symm=none int=(grid=ultrafine) guess=(read,tcheck) s
 table=(opt,rrhf)
 ----------------------------------------------------------------------
 -----
 title
 -----
 Symbolic Z-matrix:
 Charge =  0 Multiplicity = 1

 SCF Done:  E(RHF) =  -591.459801099     A.U. after   13 cycles
 Normal termination of Gaussian 16 at Wed Apr  9 19:22:57 2025.
 Gaussian 16:  ES64L-G16RevC.01  3-Jul-2019

 ----------------------------------------------------------------------
 #t hf aug-cc-pvdz iop(5/13=1,5/36=2,99/5=2) pseudo=read geom=check gue
 ss=(read,tcheck) scf=(maxcycle=1)
 ----------------------------------------------------------------------
 -----
 title
 -----
 Structure from the checkpoint file:  "HB300SPXx10_1015_4.05_1.00_ethyne_thioacetone_dimer_mol1.chk"
 Charge =  0 Multiplicity = 1

                         Standard orientation:
 ---------------------------------------------------------------------
 Center     Atomic      Atomic             Coordinates (Angstroms)
 Number     Number       Type             X           Y           Z
 ---------------------------------------------------------------------
      1          6           0        0.237950   -2.967519    0.000000
      2          1           0       -0.417443   -2.125350    0.000000
      3          6           0        0.990294   -3.898151    0.000000
      4          1           0        1.651800   -4.727883    0.000000
      5          1           0       -1.034107    3.223906    0.000000
      6          1           0        0.513455    3.212920    0.874719
      7          1           0        0.513455    3.212920   -0.874719
      8          1           0        1.338574   -0.358505    0.000000
      9          1           0        1.925139    1.070742   -0.874314
     10          6           0       -0.021856    2.834691    0.000000
     11          6           0       -0.000000    1.336201    0.000000
     12         16           0       -1.366239    0.452450    0.000000
     13          6           0        1.367583    0.724997    0.000000
     14          1           0        1.925139    1.070742    0.874314
 ---------------------------------------------------------------------

 SCF Done:  E(RHF) =  -591.726579129     A.U. after    2 cycles

 The electronic state is 1-A'.
 Alpha  occ. eigenvalues --  -93.92862 -11.33701 -11.25646 -11.25475 -11.24106
 Alpha  occ. eigenvalues --  -11.23740  -8.21167  -6.18984  -6.18792  -6.18573
 Alpha  occ. eigenvalues --   -1.13872  -1.02602  -0.98041  -0.97594  -0.75927
 Alpha  occ. eigenvalues --   -0.73710  -0.68156  -0.62762  -0.62628  -0.62472
 Alpha  occ. eigenvalues --   -0.57010  -0.54431  -0.51121  -0.41164  -0.41123
 Alpha  occ. eigenvalues --   -0.39865  -0.35098
 Alpha virt. eigenvalues --    0.03048   0.03603   0.03604   0.04829   0.05826
 Alpha virt. eigenvalues --    0.06260   0.06670   0.07444   0.08761   0.09787
 Alpha virt. eigenvalues --    0.10374   0.11737   0.12698   0.13038   0.14021

 Mulliken charges:
               1
     1  C    0.476605
     2  H   -0.250410
     3  C    0.045855
     4  H   -0.245452
     5  H    0.175626
     6  H    0.253300
     7  H    0.253300
     8  H   -0.012273
     9  H    0.295581
    10  C   -0.487192
    11  C   -0.530629
    12  S    0.135836
    13  C   -0.405729
    14  H    0.295581
 Sum of Mulliken charges =  -0.00000

 Dipole moment (field-independent basis, Debye):
    X=              2.7733    Y=              2.2916    Z=              0.0000  Tot=              3.5976

 Test job not archived.
 1\1\GINC-SE100\SP\RHF\Aug-CC-pVDZ\C5H8S1\OHZDE\09-Apr-2025\0\\#t hf au
 g-cc-pvdz iop(5/13=1,5/36=2,99/5=2) pseudo=read geom=check guess=(read
 ,tcheck) scf=(maxcycle=1)\\title\\0,1\C,0,-0.20751211,-2.93011645,0.\H
 ,0,-0.70775465,-1.98748922,0.\C,0,0.37296237,-3.97660953,0.\H,0,0.8813
 7254,-4.90804053,0.\H,0,-0.39213214,3.38793563,0.\H,0,1.13032096,3.110
 0765,0.87471889\H,0,1.13032096,3.1100765,-0.87471889\H,0,1.32679884,-0
 .55015471,0.\H,0,2.15118785,0.75643893,-0.87431367\C,0,0.53777415,2.82
 989128,0.\C,0,0.30073203,1.35010686,0.\S,0,-1.1975087,0.71536274,0.\C,

 Normal termination of Gaussian 16 at Wed Apr  9 19:23:01 2025.
