 Gaussian 16, Revision C.01,

 ----------------------------------------------------------------------
 #t hf aug-cc-pvdz symm=none int=(grid=ultrafine) guess=(read,tcheck) s
 table=(opt,rrhf)
 ----------------------------------------------------------------------
 -----
 title
 -----
 Symbolic Z-matrix:
 Charge =  0 Multiplicity = 1

 SCF Done:  E(RHF) =  -704.614825354     A.U. after   13 cycles
 Normal termination of Gaussian 16 at Wed Apr  9 19:27:10 2025.
 Gaussian 16:  ES64L-G16RevC.01  3-Jul-2019

 ----------------------------------------------------------------------
 #t hf aug-cc-pvdz iop(5/13=1,5/36=2,99/5=2) pseudo=read geom=check gue
 ss=(read,tcheck) scf=(maxcycle=1)
 ----------------------------------------------------------------------
 -----
 title
 -----
 Structure from the checkpoint file:  "HB300SPXx10_1130_4.16_2.00_aceticacid_dimethylsulfide_dimer_mol1.chk"
 Charge =  0 Multiplicity = 1

                         Standard orientation:
 ---------------------------------------------------------------------
 Center     Atomic      Atomic             Coordinates (Angstroms)
 Number     Number       Type             X           Y           Z
 ---------------------------------------------------------------------
      1          6           0        0.229225    2.979831    0.000000
      2          8           0       -0.831134    2.397959    0.000000
      3          8           0        1.412570    2.355846   -0.000000
      4          1           0        1.268108    1.376894   -0.000000
      5          6           0        0.381699    4.476023    0.000000
      6          1           0       -0.595417    4.946026    0.000000
      7          1           0        0.947374    4.788423    0.876781
      8          1           0        0.947374    4.788423   -0.876781
      9          1           0       -1.498937   -3.713831    1.379195
     10          1           0       -1.398865   -1.930519    1.315483
     11          1           0       -0.246864   -2.863153    2.299403
     12          1           0       -0.246864   -2.863153   -2.299403
     13          1           0       -1.398865   -1.930519   -1.315483
     14          1           0       -1.498937   -3.713831   -1.379195
     15          6           0       -0.831134   -2.855178    1.382643
     16         16           0        0.336154   -2.961762   -0.000000
     17          6           0       -0.831134   -2.855178   -1.382643
 ---------------------------------------------------------------------

 SCF Done:  E(RHF) =  -704.995926706     A.U. after    2 cycles

 The electronic state is 1-A'.
 Alpha  occ. eigenvalues --  -93.93758 -20.60399 -20.53538 -11.39609 -11.26016
 Alpha  occ. eigenvalues --  -11.25989 -11.25431  -8.21872  -6.19705  -6.19549
 Alpha  occ. eigenvalues --   -6.19322  -1.54843  -1.44939  -1.08342  -1.03169
 Alpha  occ. eigenvalues --   -0.95794  -0.82992  -0.82456  -0.70758  -0.68567
 Alpha  occ. eigenvalues --   -0.65310  -0.61414  -0.61039  -0.58502  -0.58229
 Alpha  occ. eigenvalues --   -0.57349  -0.57305  -0.56274  -0.50350  -0.47345
 Alpha  occ. eigenvalues --   -0.44444  -0.44106  -0.34292
 Alpha virt. eigenvalues --    0.03541   0.04043   0.04070   0.04731   0.05558
 Alpha virt. eigenvalues --    0.05825   0.06521   0.07290   0.07464   0.08422
 Alpha virt. eigenvalues --    0.09976   0.10629   0.12220   0.13071   0.13843

 Mulliken charges:
               1
     1  C    1.873472
     2  O   -1.178886
     3  O   -1.203106
     4  H    0.398786
     5  C   -0.516280
     6  H    0.180348
     7  H    0.221405
     8  H    0.221405
     9  H    0.171205
    10  H    0.179405
    11  H    0.142868
    12  H    0.142868
    13  H    0.179405
    14  H    0.171205
    15  C   -0.669662
    16  S    0.355223
    17  C   -0.669662
 Sum of Mulliken charges =  -0.00000

 Dipole moment (field-independent basis, Debye):
    X=             -0.0916    Y=              0.9348    Z=             -0.0000  Tot=              0.9393

 Test job not archived.
 1\1\GINC-SE028\SP\RHF\Aug-CC-pVDZ\C4H10O2S1\OHZDE\09-Apr-2025\0\\#t hf
  aug-cc-pvdz iop(5/13=1,5/36=2,99/5=2) pseudo=read geom=check guess=(r
 ead,tcheck) scf=(maxcycle=1)\\title\\0,1\C,0,0.08152563,1.86646531,0.\
 O,0,1.12794826,1.25988757,0.\O,0,-1.11612638,1.27040068,0.\H,0,-0.9946
 6015,0.28833063,0.\C,0,-0.03582077,3.36582142,0.\H,0,0.95204799,3.8127
 8193,0.\H,0,-0.5940149,3.69140047,-0.87678098\H,0,-0.5940149,3.6914004
 7,0.87678098\H,0,1.65224785,-4.86588072,-1.37919498\H,0,1.5940213,-3.0
 8071272,-1.31548339\H,0,0.42046735,-3.98607608,-2.29940307\H,0,0.42046

 Normal termination of Gaussian 16 at Wed Apr  9 19:27:14 2025.
