 Gaussian 16, Revision C.01,

 ----------------------------------------------------------------------
 #t hf aug-cc-pvdz symm=none int=(grid=ultrafine) guess=(read,tcheck) s
 table=(opt,rrhf)
 ----------------------------------------------------------------------
 -----
 title
 -----
 Symbolic Z-matrix:
 Charge =  0 Multiplicity = 1

 SCF Done:  E(RHF) =  -552.786626634     A.U. after   12 cycles
 Normal termination of Gaussian 16 at Wed Apr  9 19:27:46 2025.
 Gaussian 16:  ES64L-G16RevC.01  3-Jul-2019

 ----------------------------------------------------------------------
 #t hf aug-cc-pvdz iop(5/13=1,5/36=2,99/5=2) pseudo=read geom=check gue
 ss=(read,tcheck) scf=(maxcycle=1)
 ----------------------------------------------------------------------
 -----
 title
 -----
 Structure from the checkpoint file:  "HB300SPXx10_1152_4.20_0.85_methanol_methanethiol_dimer_mol1.chk"
 Charge =  0 Multiplicity = 1

                         Standard orientation:
 ---------------------------------------------------------------------
 Center     Atomic      Atomic             Coordinates (Angstroms)
 Number     Number       Type             X           Y           Z
 ---------------------------------------------------------------------
      1          8           0       -1.492184   -0.291476    0.704519
      2          1           0       -0.656061   -0.662093    0.392060
      3          6           0       -2.232170    0.142867   -0.423077
      4          1           0       -3.153225    0.589077   -0.054130
      5          1           0       -1.693180    0.899066   -1.003379
      6          1           0       -2.492246   -0.685025   -1.089046
      7          1           0        0.391543    1.385609    0.841341
      8          1           0        0.907775    1.656332   -0.829662
      9          1           0        2.124262    1.602576    0.451535
     10          1           0        1.688930   -0.970419    1.014440
     11          6           0        1.176307    1.193688    0.116255
     12         16           0        1.322178   -0.593915   -0.219899
 ---------------------------------------------------------------------

 SCF Done:  E(RHF) =  -553.017267151     A.U. after    2 cycles

 The electronic state is 1-A.
 Alpha  occ. eigenvalues --  -93.96367 -20.52210 -11.27530 -11.27140  -8.24538
 Alpha  occ. eigenvalues --   -6.22379  -6.22234  -6.22042  -1.42706  -1.07700
 Alpha  occ. eigenvalues --   -0.91899  -0.89788  -0.68561  -0.62749  -0.62079
 Alpha  occ. eigenvalues --   -0.59530  -0.58072  -0.54893  -0.49586  -0.48019
 Alpha  occ. eigenvalues --   -0.42646  -0.38012
 Alpha virt. eigenvalues --    0.03457   0.04081   0.04519   0.05202   0.06425
 Alpha virt. eigenvalues --    0.07638   0.07885   0.10141   0.10324   0.11533
 Alpha virt. eigenvalues --    0.13586   0.14825   0.14925   0.16021   0.16510

 Mulliken charges:
               1
     1  O   -1.169003
     2  H    0.747820
     3  C    0.398495
     4  H    0.006963
     5  H    0.086034
     6  H    0.092503
     7  H    0.118005
     8  H    0.231741
     9  H    0.057565
    10  H    0.370272
    11  C   -0.549625
    12  S   -0.390770
 Sum of Mulliken charges =  -0.00000

 Dipole moment (field-independent basis, Debye):
    X=              1.2230    Y=              1.2617    Z=             -0.5080  Tot=              1.8291

 Test job not archived.
 1\1\GINC-SE045\SP\RHF\Aug-CC-pVDZ\C2H8O1S1\OHZDE\09-Apr-2025\0\\#t hf
 aug-cc-pvdz iop(5/13=1,5/36=2,99/5=2) pseudo=read geom=check guess=(re
 ad,tcheck) scf=(maxcycle=1)\\title\\0,1\O,0,-1.11765515,0.11430785,-1.
 55067005\H,0,-0.42321658,-0.33845143,-1.05382579\C,0,-0.58571066,1.330
 64039,-2.0459227\H,0,-1.38742324,1.84483596,-2.57168664\H,0,-0.2297527
 6,1.98264255,-1.24138273\H,0,0.23685112,1.16511886,-2.74774471\H,0,-1.
 30861719,0.53493335,0.9325474\H,0,0.16620315,1.40427764,1.38107912\H,0
 ,-0.49683561,0.1992888,2.4912941\H,0,-0.04987668,-1.84627403,0.8352202

 Normal termination of Gaussian 16 at Wed Apr  9 19:27:49 2025.
