 Gaussian 16, Revision C.01,

 ----------------------------------------------------------------------
 #t hf aug-cc-pvdz symm=none int=(grid=ultrafine) guess=(read,tcheck) s
 table=(opt,rrhf)
 ----------------------------------------------------------------------
 -----
 title
 -----
 Symbolic Z-matrix:
 Charge =  0 Multiplicity = 1

 SCF Done:  E(RHF) =  -1102.15738041     A.U. after   13 cycles
 Normal termination of Gaussian 16 at Wed Apr  9 19:26:33 2025.
 Gaussian 16:  ES64L-G16RevC.01  3-Jul-2019

 ----------------------------------------------------------------------
 #t hf aug-cc-pvdz iop(5/13=1,5/36=2,99/5=2) pseudo=read geom=check gue
 ss=(read,tcheck) scf=(maxcycle=1)
 ----------------------------------------------------------------------
 -----
 title
 -----
 Structure from the checkpoint file:  "HB300SPXx10_1116_4.15_1.05_aceticacid_dimethyldisulfide_dimer_mol1.chk"
 Charge =  0 Multiplicity = 1

                         Standard orientation:
 ---------------------------------------------------------------------
 Center     Atomic      Atomic             Coordinates (Angstroms)
 Number     Number       Type             X           Y           Z
 ---------------------------------------------------------------------
      1          6           0        2.919111   -0.068605   -0.035318
      2          8           0        2.557672    1.074151   -0.180670
      3          8           0        2.075809   -1.112906   -0.039358
      4          1           0        1.165508   -0.779609   -0.189971
      5          6           0        4.344149   -0.501427    0.169467
      6          1           0        4.992990    0.367042    0.187535
      7          1           0        4.431837   -1.055430    1.102996
      8          1           0        4.642289   -1.173446   -0.634286
      9          1           0       -4.730161   -0.727296    0.261360
     10          1           0       -4.017818   -0.116426   -1.247351
     11          1           0       -4.035765    0.903700    0.216820
     12          1           0       -0.503344    1.316810    1.560334
     13          1           0       -1.554989    2.355184    0.557369
     14          1           0        0.187494    2.202236    0.188349
     15          6           0       -3.940873   -0.109145   -0.164185
     16         16           0       -2.370964   -0.861954    0.366535
     17         16           0       -0.966413    0.296674   -0.580152
     18          6           0       -0.697030    1.689468    0.559192
 ---------------------------------------------------------------------

 SCF Done:  E(RHF) =  -1102.59869782     A.U. after    2 cycles

 The electronic state is 1-A.
 Alpha  occ. eigenvalues --  -93.97610 -93.97262 -20.58549 -20.52969 -11.38933
 Alpha  occ. eigenvalues --  -11.27371 -11.26632 -11.24852  -8.25604  -8.25276
 Alpha  occ. eigenvalues --   -6.23414  -6.23199  -6.23082  -6.22999  -6.22873
 Alpha  occ. eigenvalues --   -6.22645  -1.53743  -1.44284  -1.12346  -1.03081
 Alpha  occ. eigenvalues --   -1.02510  -0.92243  -0.82125  -0.81161  -0.70300
 Alpha  occ. eigenvalues --   -0.67798  -0.64436  -0.62289  -0.61110  -0.60625
 Alpha  occ. eigenvalues --   -0.59028  -0.57614  -0.56642  -0.55419  -0.54432
 Alpha  occ. eigenvalues --   -0.50423  -0.46625  -0.45508  -0.43902  -0.37456
 Alpha  occ. eigenvalues --   -0.36353
 Alpha virt. eigenvalues --    0.03441   0.03913   0.04394   0.04695   0.05687
 Alpha virt. eigenvalues --    0.05860   0.06197   0.07196   0.07980   0.08353
 Alpha virt. eigenvalues --    0.09914   0.10785   0.11668   0.12075   0.13746

 Mulliken charges:
               1
     1  C    1.890111
     2  O   -1.210883
     3  O   -1.331748
     4  H    0.665039
     5  C   -0.584756
     6  H    0.177729
     7  H    0.221653
     8  H    0.229573
     9  H    0.169550
    10  H    0.220787
    11  H    0.191260
    12  H    0.204777
    13  H    0.146051
    14  H    0.222319
    15  C   -0.741665
    16  S    0.176348
    17  S   -0.005378
    18  C   -0.640764
 Sum of Mulliken charges =  -0.00000

 Dipole moment (field-independent basis, Debye):
    X=             -1.2180    Y=              0.3471    Z=              0.7426  Tot=              1.4682

 Test job not archived.
 1\1\GINC-SE097\SP\RHF\Aug-CC-pVDZ\C4H10O2S2\OHZDE\09-Apr-2025\0\\#t hf
  aug-cc-pvdz iop(5/13=1,5/36=2,99/5=2) pseudo=read geom=check guess=(r
 ead,tcheck) scf=(maxcycle=1)\\title\\0,1\C,0,2.51189353,-1.3688008,0.0
 1480743\O,0,1.76216303,-1.97148126,0.7444221\O,0,2.20838592,-0.1819016
 3,-0.53372859\H,0,1.31541707,0.08523139,-0.22768185\C,0,3.88111819,-1.
 83853704,-0.39087365\H,0,4.08390343,-2.80677129,0.05292751\H,0,3.94369
 33,-1.90220497,-1.47628393\H,0,4.62800978,-1.11523999,-0.06604891\H,0,
 -3.96896483,2.71624093,-0.57183735\H,0,-3.20720274,2.61286208,1.029985

 Normal termination of Gaussian 16 at Wed Apr  9 19:26:41 2025.
