 Gaussian 16, Revision C.01,

 ----------------------------------------------------------------------
 #t hf aug-cc-pvdz symm=none int=(grid=ultrafine) guess=(read,tcheck) s
 table=(opt,rrhf)
 ----------------------------------------------------------------------
 -----
 title
 -----
 Symbolic Z-matrix:
 Charge =  0 Multiplicity = 1

 SCF Done:  E(RHF) =  -858.785443578     A.U. after   11 cycles

 1\1\GINC-SE454\Stability\RHF\Aug-CC-pVDZ\Cl1H3S1\OHZDE\09-Apr-2025\0\\
 #t hf aug-cc-pvdz symm=none int=(grid=ultrafine) guess=(read,tcheck) s
 table=(opt,rrhf)\\title\\0,1\H,0,-0.07574771,0.51696812,0.\Cl,0,0.0020
 5903,1.81286821,0.\H,0,0.86735225,-1.57172316,0.97032462\H,0,0.8673522
 5,-1.57172316,-0.97032462\S,0,-0.05789486,-1.51820773,0.\\Version=ES64
 L-G16RevC.01\HF=-858.7854436\RMSD=4.240e-09\Dipole=0.4310912,-1.044959
 4,0.\Quadrupole=0.743469,-2.4361643,1.6926952,-1.5645112,0.,0.\PG=Unkn
 own\\@

 Normal termination of Gaussian 16 at Wed Apr  9 19:29:41 2025.
 Gaussian 16:  ES64L-G16RevC.01  3-Jul-2019

 ----------------------------------------------------------------------
 #t hf aug-cc-pvdz iop(5/13=1,5/36=2,99/5=2) pseudo=read geom=check gue
 ss=(read,tcheck) scf=(maxcycle=1)
 ----------------------------------------------------------------------
 -----
 title
 -----
 Structure from the checkpoint file:  "HB300SPXx10_1352_4.40_0.85_hydrogenchloride_sulfane_dimer_mol1.chk"
 Charge =  0 Multiplicity = 1

                         Standard orientation:
 ---------------------------------------------------------------------
 Center     Atomic      Atomic             Coordinates (Angstroms)
 Number     Number       Type             X           Y           Z
 ---------------------------------------------------------------------
      1          1           0       -0.104408    0.406795    0.000000
      2         17           0       -0.049935    1.703886    0.000000
      3          1           0        0.876126   -1.664586    0.970325
      4          1           0        0.876126   -1.664586   -0.970325
      5         16           0       -0.049935   -1.627730   -0.000000
 ---------------------------------------------------------------------

 SCF Done:  E(RHF) =  -858.928508608     A.U. after    2 cycles

 The electronic state is 1-A'.
 Alpha  occ. eigenvalues -- -105.54860 -93.99360 -10.59748  -8.27548  -7.76715
 Alpha  occ. eigenvalues --   -7.76361  -7.76360  -6.25394  -6.25281  -6.25074
 Alpha  occ. eigenvalues --   -1.06440  -1.03641  -0.62669  -0.62360  -0.53744
 Alpha  occ. eigenvalues --   -0.45970  -0.45945  -0.41766
 Alpha virt. eigenvalues --    0.02965   0.05398   0.06630   0.09721   0.10166
 Alpha virt. eigenvalues --    0.12279   0.15869   0.15978   0.16356   0.17047
 Alpha virt. eigenvalues --    0.18703   0.23139   0.24857   0.26370   0.26566

 Mulliken charges:
               1
     1  H    0.384282
     2  Cl  -0.216529
     3  H    0.326906
     4  H    0.326906
     5  S   -0.821565
 Sum of Mulliken charges =  -0.00000

 Dipole moment (field-independent basis, Debye):
    X=              1.1920    Y=             -2.6520    Z=             -0.0000  Tot=              2.9076

 Test job not archived.
 1\1\GINC-SE454\SP\RHF\Aug-CC-pVDZ\Cl1H3S1\OHZDE\09-Apr-2025\0\\#t hf a
 ug-cc-pvdz iop(5/13=1,5/36=2,99/5=2) pseudo=read geom=check guess=(rea
 d,tcheck) scf=(maxcycle=1)\\title\\0,1\H,0,-0.07574771,0.51696812,0.\C
 l,0,0.00205903,1.81286821,0.\H,0,0.86735225,-1.57172316,0.97032462\H,0
 ,0.86735225,-1.57172316,-0.97032462\S,0,-0.05789486,-1.51820773,0.\\Ve
 rsion=ES64L-G16RevC.01\State=1-A'\HF=-858.9285086\RMSD=4.787e-03\Dipol
 e=0.4501234,-1.0516601,0.\Quadrupole=0.5655859,-2.1321049,1.5665189,-1
 .6713169,0.,0.\PG=CS [SG(Cl1H1S1),X(H2)]\\@

 Normal termination of Gaussian 16 at Wed Apr  9 19:29:43 2025.
