 Gaussian 16, Revision C.01,

 ----------------------------------------------------------------------
 #t hf aug-cc-pvdz symm=none int=(grid=ultrafine) guess=(read,tcheck) s
 table=(opt,rrhf)
 ----------------------------------------------------------------------
 -----
 title
 -----
 Symbolic Z-matrix:
 Charge =  0 Multiplicity = 1

 SCF Done:  E(RHF) =  -952.377401961     A.U. after   12 cycles

 1\1\GINC-SE366\Stability\RHF\Aug-CC-pVDZ\C4H10S2\OHZDE\09-Apr-2025\0\\
 #t hf aug-cc-pvdz symm=none int=(grid=ultrafine) guess=(read,tcheck) s
 table=(opt,rrhf)\\title\\0,1\H,0,1.25927999,1.11406487,-0.28265552\H,0
 ,2.28279017,2.73418341,-0.67577847\S,0,1.07110419,2.4516331,-0.1764195
 4\H,0,0.26944487,0.08434642,1.78478072\H,0,0.17962611,-1.6588673,2.065
 78942\H,0,-2.1233565,-0.30408832,1.8767818\H,0,-1.14076916,-1.6272594,
 -1.67871626\H,0,-1.97597698,-1.82231419,0.99447522\H,0,-0.43652148,-0.
 04145726,-2.02224005\H,0,-2.74880295,-0.14806528,-0.64840173\H,0,-1.49

 Normal termination of Gaussian 16 at Wed Apr  9 04:10:49 2025.
 Gaussian 16:  ES64L-G16RevC.01  3-Jul-2019

 ----------------------------------------------------------------------
 #t hf aug-cc-pvdz iop(5/13=1,5/36=2,99/5=2) pseudo=read geom=check gue
 ss=(read,tcheck) scf=(maxcycle=1)
 ----------------------------------------------------------------------
 -----
 title
 -----
 Structure from the checkpoint file:  "HB300SPXx10_1234_4.28_0.95_sulfane_tetrahydrothiophene_dimer_mol1.chk"
 Charge =  0 Multiplicity = 1

                         Standard orientation:
 ---------------------------------------------------------------------
 Center     Atomic      Atomic             Coordinates (Angstroms)
 Number     Number       Type             X           Y           Z
 ---------------------------------------------------------------------
      1          1           0       -1.575630   -0.577174   -0.005054
      2          1           0       -3.526812   -0.644965    0.118218
      3         16           0       -2.604116    0.296578   -0.125721
      4          1           0        0.081249    0.013523   -1.799550
      5          1           0        1.648154   -0.783265   -1.988672
      6          1           0        1.638803    1.832386   -1.411468
      7          1           0        1.787780   -0.199391    1.936294
      8          1           0        2.737341    0.786107   -0.514970
      9          1           0        0.034535   -0.009934    2.074065
     10          1           0        1.483812    2.074190    1.178819
     11          1           0       -0.037508    1.683267    0.388942
     12         16           0        0.636334   -1.333067    0.136248
     13          6           0        1.011499   -0.241764   -1.294490
     14          6           0        1.685362    0.997839   -0.711712
     15          6           0        0.965447    1.310535    0.599111
     16          6           0        0.873159    0.001572    1.382915
 ---------------------------------------------------------------------

 SCF Done:  E(RHF) =  -952.673751353     A.U. after    2 cycles

 The electronic state is 1-A.
 Alpha  occ. eigenvalues --  -93.94525 -93.93934 -11.26707 -11.26693 -11.24485
 Alpha  occ. eigenvalues --  -11.24393  -8.22673  -8.22075  -6.20555  -6.20434
 Alpha  occ. eigenvalues --   -6.20202  -6.19870  -6.19753  -6.19543  -1.14482
 Alpha  occ. eigenvalues --   -1.00564  -0.99567  -0.98992  -0.80525  -0.80294
 Alpha  occ. eigenvalues --   -0.67378  -0.65650  -0.61334  -0.58983  -0.55771
 Alpha  occ. eigenvalues --   -0.52034  -0.50772  -0.49934  -0.49298  -0.48878
 Alpha  occ. eigenvalues --   -0.43802  -0.37837  -0.34631
 Alpha virt. eigenvalues --    0.03415   0.03842   0.04177   0.04239   0.05805
 Alpha virt. eigenvalues --    0.06394   0.06823   0.07677   0.08004   0.09056
 Alpha virt. eigenvalues --    0.11681   0.12787   0.13031   0.14378   0.14571

 Mulliken charges:
               1
     1  H    0.474657
     2  H    0.192837
     3  S   -0.592267
     4  H    0.089976
     5  H    0.156015
     6  H    0.136818
     7  H    0.124276
     8  H    0.108178
     9  H    0.129224
    10  H    0.154128
    11  H    0.062470
    12  S    0.285369
    13  C   -0.408560
    14  C   -0.247944
    15  C   -0.278791
    16  C   -0.386385
 Sum of Mulliken charges =  -0.00000

 Dipole moment (field-independent basis, Debye):
    X=              1.3578    Y=              0.8518    Z=              0.1219  Tot=              1.6075

 Test job not archived.
 1\1\GINC-SE366\SP\RHF\Aug-CC-pVDZ\C4H10S2\OHZDE\09-Apr-2025\0\\#t hf a
 ug-cc-pvdz iop(5/13=1,5/36=2,99/5=2) pseudo=read geom=check guess=(rea
 d,tcheck) scf=(maxcycle=1)\\title\\0,1\H,0,1.25927999,1.11406487,-0.28
 265552\H,0,2.28279017,2.73418341,-0.67577847\S,0,1.07110419,2.4516331,
 -0.17641954\H,0,0.26944487,0.08434642,1.78478072\H,0,0.17962611,-1.658
 8673,2.06578942\H,0,-2.1233565,-0.30408832,1.8767818\H,0,-1.14076916,-
 1.6272594,-1.67871626\H,0,-1.97597698,-1.82231419,0.99447522\H,0,-0.43
 652148,-0.04145726,-2.02224005\H,0,-2.74880295,-0.14806528,-0.64840173

 Normal termination of Gaussian 16 at Wed Apr  9 04:10:54 2025.
