 Gaussian 16, Revision C.01,

 ----------------------------------------------------------------------
 #t hf aug-cc-pvdz symm=none int=(grid=ultrafine) guess=(read,tcheck) s
 table=(opt,rrhf)
 ----------------------------------------------------------------------
 -----
 title
 -----
 Symbolic Z-matrix:
 Charge =  0 Multiplicity = 1

 SCF Done:  E(RHF) =  -969.534933890     A.U. after   13 cycles
 Normal termination of Gaussian 16 at Wed Apr  9 19:24:13 2025.
 Gaussian 16:  ES64L-G16RevC.01  3-Jul-2019

 ----------------------------------------------------------------------
 #t hf aug-cc-pvdz iop(5/13=1,5/36=2,99/5=2) pseudo=read geom=check gue
 ss=(read,tcheck) scf=(maxcycle=1)
 ----------------------------------------------------------------------
 -----
 title
 -----
 Structure from the checkpoint file:  "HB300SPXx10_1067_4.10_1.10_methylamine_dimethyldisulfide_dimer_mol1.chk"
 Charge =  0 Multiplicity = 1

                         Standard orientation:
 ---------------------------------------------------------------------
 Center     Atomic      Atomic             Coordinates (Angstroms)
 Number     Number       Type             X           Y           Z
 ---------------------------------------------------------------------
      1          7           0        2.475731    0.884562    0.002324
      2          1           0        2.742154    1.814147   -0.293796
      3          1           0        1.738513    0.575137   -0.619820
      4          6           0        3.619314   -0.025481   -0.059032
      5          1           0        3.308181   -1.014929    0.274418
      6          1           0        4.069754   -0.133680   -1.052129
      7          1           0        4.393405    0.317835    0.626248
      8          1           0       -1.667628    2.661301    0.651400
      9          1           0       -0.700549    2.206689   -0.766507
     10          1           0       -0.188513    1.697140    0.864061
     11          1           0       -0.783096   -2.029812    1.555035
     12          1           0        0.597482   -0.915916    1.310635
     13          1           0        0.588624   -2.515123    0.535944
     14          6           0       -1.038384    1.886385    0.215357
     15         16           0       -2.093915    0.408724    0.074779
     16         16           0       -0.826943   -1.030918   -0.648506
     17          6           0       -0.030047   -1.677507    0.856655
 ---------------------------------------------------------------------

 SCF Done:  E(RHF) =  -969.855124763     A.U. after    2 cycles

 The electronic state is 1-A.
 Alpha  occ. eigenvalues --  -93.96670 -93.96510 -15.48489 -11.26501 -11.26492
 Alpha  occ. eigenvalues --  -11.25484  -8.24661  -8.24510  -6.22475  -6.22321
 Alpha  occ. eigenvalues --   -6.22259  -6.22106  -6.22039  -6.21882  -1.17406
 Alpha  occ. eigenvalues --   -1.11554  -1.02364  -0.91675  -0.90966  -0.80659
 Alpha  occ. eigenvalues --   -0.69783  -0.63320  -0.61693  -0.60473  -0.60204
 Alpha  occ. eigenvalues --   -0.58564  -0.58185  -0.53978  -0.53464  -0.49757
 Alpha  occ. eigenvalues --   -0.44677  -0.43047  -0.36491  -0.35461
 Alpha virt. eigenvalues --    0.03337   0.03916   0.04332   0.04906   0.05616
 Alpha virt. eigenvalues --    0.05975   0.06616   0.07235   0.07875   0.09167
 Alpha virt. eigenvalues --    0.09575   0.10270   0.11323   0.12896   0.14162

 Mulliken charges:
               1
     1  N    0.061745
     2  H    0.140079
     3  H    0.032550
     4  C   -0.446933
     5  H    0.044616
     6  H    0.102081
     7  H    0.075523
     8  H    0.142064
     9  H    0.200909
    10  H    0.221941
    11  H    0.154189
    12  H    0.200031
    13  H    0.199764
    14  C   -0.661556
    15  S    0.112025
    16  S    0.063899
    17  C   -0.642927
 Sum of Mulliken charges =  -0.00000

 Dipole moment (field-independent basis, Debye):
    X=              2.2015    Y=              0.7516    Z=              0.2944  Tot=              2.3448

 Test job not archived.
 1\1\GINC-SE114\SP\RHF\Aug-CC-pVDZ\C3H11N1S2\OHZDE\09-Apr-2025\0\\#t hf
  aug-cc-pvdz iop(5/13=1,5/36=2,99/5=2) pseudo=read geom=check guess=(r
 ead,tcheck) scf=(maxcycle=1)\\title\\0,1\N,0,-0.790217,0.77789413,2.28
 472778\H,0,-1.73224372,0.61681804,2.6155392\H,0,-0.85550262,0.99181266
 ,1.29666237\C,0,-0.16836631,1.8838218,3.01270443\H,0,0.84688345,2.0289
 6517,2.64500493\H,0,-0.69345824,2.84224623,2.93178871\H,0,-0.0959132,1
 .62767695,4.06903376\H,0,-1.56550827,-2.70617775,-0.54470516\H,0,-2.09
 468999,-1.01365574,-0.45690894\H,0,-0.76190685,-1.58730711,0.58000243\

 Normal termination of Gaussian 16 at Wed Apr  9 19:24:19 2025.
