 Gaussian 16, Revision C.01,

 ----------------------------------------------------------------------
 #t hf aug-cc-pvdz symm=none int=(grid=ultrafine) guess=(read,tcheck) s
 table=(opt,rrhf)
 ----------------------------------------------------------------------
 -----
 title
 -----
 Symbolic Z-matrix:
 Charge =  0 Multiplicity = 1

 SCF Done:  E(RHF) =  -513.767986730     A.U. after   12 cycles
 Normal termination of Gaussian 16 at Wed Apr  9 19:27:42 2025.
 Gaussian 16:  ES64L-G16RevC.01  3-Jul-2019

 ----------------------------------------------------------------------
 #t hf aug-cc-pvdz iop(5/13=1,5/36=2,99/5=2) pseudo=read geom=check gue
 ss=(read,tcheck) scf=(maxcycle=1)
 ----------------------------------------------------------------------
 -----
 title
 -----
 Structure from the checkpoint file:  "HB300SPXx10_1162_4.21_0.85_water_methanethiol_dimer_mol1.chk"
 Charge =  0 Multiplicity = 1

                         Standard orientation:
 ---------------------------------------------------------------------
 Center     Atomic      Atomic             Coordinates (Angstroms)
 Number     Number       Type             X           Y           Z
 ---------------------------------------------------------------------
      1          8           0       -2.077051    0.122727    0.054729
      2          1           0       -1.268371   -0.389633   -0.088696
      3          1           0       -2.786471   -0.414998   -0.303202
      4          1           0       -0.065414    1.538472    0.493878
      5          1           0        0.841245    1.501817   -1.022257
      6          1           0        1.722980    1.491439    0.511741
      7          1           0        0.765727   -0.905355    1.238978
      8          6           0        0.824037    1.152542    0.006414
      9         16           0        0.778906   -0.669925   -0.081673
 ---------------------------------------------------------------------

 SCF Done:  E(RHF) =  -513.955423960     A.U. after    2 cycles

 The electronic state is 1-A.
 Alpha  occ. eigenvalues --  -93.96088 -20.53027 -11.27183  -8.24266  -6.22108
 Alpha  occ. eigenvalues --   -6.21962  -6.21771  -1.41695  -1.07347  -0.89530
 Alpha  occ. eigenvalues --   -0.70158  -0.62409  -0.59893  -0.56007  -0.54463
 Alpha  occ. eigenvalues --   -0.48045  -0.47436  -0.37983
 Alpha virt. eigenvalues --    0.03722   0.04353   0.04655   0.05913   0.07139
 Alpha virt. eigenvalues --    0.09818   0.11042   0.11738   0.14318   0.14702
 Alpha virt. eigenvalues --    0.15903   0.16834   0.18074   0.21197   0.21700

 Mulliken charges:
               1
     1  O   -0.925052
     2  H    0.791992
     3  H    0.345281
     4  H    0.126906
     5  H    0.192041
     6  H    0.120062
     7  H    0.365474
     8  C   -0.586598
     9  S   -0.430107
 Sum of Mulliken charges =  -0.00000

 Dipole moment (field-independent basis, Debye):
    X=              0.7389    Y=             -0.1385    Z=              0.1342  Tot=              0.7637

 Test job not archived.
 1\1\GINC-SE224\SP\RHF\Aug-CC-pVDZ\C1H6O1S1\OHZDE\09-Apr-2025\0\\#t hf
 aug-cc-pvdz iop(5/13=1,5/36=2,99/5=2) pseudo=read geom=check guess=(re
 ad,tcheck) scf=(maxcycle=1)\\title\\0,1\O,0,-0.58582535,-1.65985485,-1
 .57348405\H,0,-0.07487288,-1.34797585,-0.81275631\H,0,-0.15829821,-2.4
 72369,-1.85201796\H,0,-1.24837248,0.67628321,-0.98411052\H,0,0.2513546
 8,1.60367088,-1.09728108\H,0,-0.91088829,1.99348686,0.17862982\H,0,-0.
 61120256,-0.37136141,1.40643721\C,0,-0.48252453,1.18941488,-0.41152155
 \S,0,0.4277617,0.01916101,0.6529353\\Version=ES64L-G16RevC.01\State=1-

 Normal termination of Gaussian 16 at Wed Apr  9 19:27:44 2025.
