 Gaussian 16, Revision C.01,

 ----------------------------------------------------------------------
 #t hf aug-cc-pvdz symm=none int=(grid=ultrafine) guess=(read,tcheck) s
 table=(opt,rrhf)
 ----------------------------------------------------------------------
 -----
 title
 -----
 Symbolic Z-matrix:
 Charge =  0 Multiplicity = 1

 SCF Done:  E(RHF) =  -591.454130272     A.U. after   14 cycles
 Normal termination of Gaussian 16 at Wed Apr  9 19:22:59 2025.
 Gaussian 16:  ES64L-G16RevC.01  3-Jul-2019

 ----------------------------------------------------------------------
 #t hf aug-cc-pvdz iop(5/13=1,5/36=2,99/5=2) pseudo=read geom=check gue
 ss=(read,tcheck) scf=(maxcycle=1)
 ----------------------------------------------------------------------
 -----
 title
 -----
 Structure from the checkpoint file:  "HB300SPXx10_1012_4.05_0.85_ethyne_thioacetone_dimer_mol1.chk"
 Charge =  0 Multiplicity = 1

                         Standard orientation:
 ---------------------------------------------------------------------
 Center     Atomic      Atomic             Coordinates (Angstroms)
 Number     Number       Type             X           Y           Z
 ---------------------------------------------------------------------
      1          6           0        0.212474   -2.675948    0.000000
      2          1           0       -0.467758   -1.853711    0.000000
      3          6           0        0.992253   -3.583716    0.000000
      4          1           0        1.678224   -4.393338    0.000000
      5          1           0       -1.089976    3.092510    0.000000
      6          1           0        0.457225    3.127709    0.874719
      7          1           0        0.457225    3.127709   -0.874719
      8          1           0        1.388548   -0.417504    0.000000
      9          1           0        1.932203    1.028609   -0.874314
     10          6           0       -0.066562    2.733674    0.000000
     11          6           0       -0.000000    1.236504    0.000000
     12         16           0       -1.339260    0.312378    0.000000
     13          6           0        1.385212    0.666381    0.000000
     14          1           0        1.932203    1.028609    0.874314
 ---------------------------------------------------------------------

 SCF Done:  E(RHF) =  -591.721503065     A.U. after    2 cycles

 The electronic state is 1-A'.
 Alpha  occ. eigenvalues --  -93.92838 -11.33905 -11.25736 -11.25390 -11.23497
 Alpha  occ. eigenvalues --  -11.22981  -8.21217  -6.19027  -6.18832  -6.18628
 Alpha  occ. eigenvalues --   -1.14044  -1.02195  -0.98264  -0.97641  -0.75970
 Alpha  occ. eigenvalues --   -0.73605  -0.67897  -0.62811  -0.62723  -0.62484
 Alpha  occ. eigenvalues --   -0.57036  -0.54525  -0.51214  -0.40769  -0.40706
 Alpha  occ. eigenvalues --   -0.39969  -0.35276
 Alpha virt. eigenvalues --    0.03032   0.03548   0.03602   0.04860   0.05878
 Alpha virt. eigenvalues --    0.06130   0.06682   0.07434   0.08786   0.09770
 Alpha virt. eigenvalues --    0.10550   0.12043   0.12974   0.13511   0.14089

 Mulliken charges:
               1
     1  C    0.476439
     2  H   -0.169796
     3  C    0.027964
     4  H   -0.273329
     5  H    0.176069
     6  H    0.253823
     7  H    0.253823
     8  H   -0.015522
     9  H    0.303292
    10  C   -0.511528
    11  C   -0.529998
    12  S    0.088312
    13  C   -0.382844
    14  H    0.303292
 Sum of Mulliken charges =  -0.00000

 Dipole moment (field-independent basis, Debye):
    X=              2.6590    Y=              2.5178    Z=              0.0000  Tot=              3.6619

 Test job not archived.
 1\1\GINC-SE026\SP\RHF\Aug-CC-pVDZ\C5H8S1\OHZDE\09-Apr-2025\0\\#t hf au
 g-cc-pvdz iop(5/13=1,5/36=2,99/5=2) pseudo=read geom=check guess=(read
 ,tcheck) scf=(maxcycle=1)\\title\\0,1\C,0,-0.20751211,-2.93011645,0.\H
 ,0,-0.70775465,-1.98748922,0.\C,0,0.37296237,-3.97660953,0.\H,0,0.8813
 7254,-4.90804053,0.\H,0,-0.31866903,2.98250784,0.\H,0,1.20378407,2.704
 6487,0.87471889\H,0,1.20378407,2.7046487,-0.87471889\H,0,1.40026195,-0
 .9555825,0.\H,0,2.22465095,0.35101114,-0.87431367\C,0,0.61123726,2.424
 46348,0.\C,0,0.37419514,0.94467907,0.\S,0,-1.12404559,0.30993494,0.\C,

 Normal termination of Gaussian 16 at Wed Apr  9 19:23:03 2025.
