 Gaussian 16, Revision C.01,

 ----------------------------------------------------------------------
 #t hf aug-cc-pvdz symm=none int=(grid=ultrafine) guess=(read,tcheck) s
 table=(opt,rrhf)
 ----------------------------------------------------------------------
 -----
 title
 -----
 Symbolic Z-matrix:
 Charge =  0 Multiplicity = 1

 SCF Done:  E(RHF) =  -1037.69751821     A.U. after   14 cycles
 Normal termination of Gaussian 16 at Wed Apr  9 19:34:49 2025.
 Gaussian 16:  ES64L-G16RevC.01  3-Jul-2019

 ----------------------------------------------------------------------
 #t hf aug-cc-pvdz iop(5/13=1,5/36=2,99/5=2) pseudo=read geom=check gue
 ss=(read,tcheck) scf=(maxcycle=1)
 ----------------------------------------------------------------------
 -----
 title
 -----
 Structure from the checkpoint file:  "HB300SPXx10_1474_5.10_0.95_phosphaalkene_phosphineF2_dimer_mol1.chk"
 Charge =  0 Multiplicity = 1

                         Standard orientation:
 ---------------------------------------------------------------------
 Center     Atomic      Atomic             Coordinates (Angstroms)
 Number     Number       Type             X           Y           Z
 ---------------------------------------------------------------------
      1          1           0       -1.547381   -2.947290   -0.593001
      2          1           0       -0.583084   -2.171020    0.664472
      3          1           0       -2.353293   -2.124221    0.741799
      4          1           0       -1.465914    2.138894   -1.515650
      5          1           0       -0.527174    1.215154    1.999321
      6          1           0       -2.306791    2.668818   -0.053980
      7          1           0       -0.550513    2.670908   -0.097886
      8          1           0       -1.313541   -0.364382    2.000592
      9          1           0       -2.274842    1.117327    2.039946
     10         15           0       -1.499300   -0.551608   -0.968682
     11          6           0       -1.423191    0.724353    0.124045
     12          6           0       -1.436264    2.123451   -0.427645
     13          6           0       -1.380836    0.648826    1.618955
     14          6           0       -1.493838   -2.088507    0.073653
     15         15           0        1.694770    0.272374   -0.214671
     16          9           0        3.298112    0.239833   -0.233999
     17          9           0        1.465244   -0.897286    0.856203
     18          1           0        1.525054   -0.547337   -1.369212
 ---------------------------------------------------------------------

 SCF Done:  E(RHF) =  -1038.13787739     A.U. after    2 cycles

 The electronic state is 1-A.
 Alpha  occ. eigenvalues --  -84.40564 -84.25709 -26.48137 -26.47341 -11.27827
 Alpha  occ. eigenvalues --  -11.24465 -11.24201 -11.23341  -6.86211  -6.73059
 Alpha  occ. eigenvalues --   -4.39081  -4.38459  -4.37499  -4.26000  -4.25083
 Alpha  occ. eigenvalues --   -4.24693  -1.62053  -1.57443  -1.09385  -0.98159
 Alpha  occ. eigenvalues --   -0.95749  -0.88147  -0.84992  -0.70871  -0.70781
 Alpha  occ. eigenvalues --   -0.69249  -0.69014  -0.64613  -0.62354  -0.61541
 Alpha  occ. eigenvalues --   -0.60883  -0.60037  -0.57510  -0.57156  -0.55727
 Alpha  occ. eigenvalues --   -0.55626  -0.52617  -0.47026  -0.38388  -0.35287
 Alpha  occ. eigenvalues --   -0.31777
 Alpha virt. eigenvalues --    0.03500   0.03868   0.04328   0.04408   0.05847
 Alpha virt. eigenvalues --    0.06207   0.06503   0.06956   0.07900   0.08370
 Alpha virt. eigenvalues --    0.09350   0.10072   0.10608   0.11358   0.11924

 Mulliken charges:
               1
     1  H   -0.040568
     2  H    0.096960
     3  H    0.114072
     4  H    0.135906
     5  H    0.213122
     6  H    0.224762
     7  H    0.238123
     8  H    0.082837
     9  H    0.206002
    10  P    1.048743
    11  C   -0.356777
    12  C   -0.490638
    13  C   -0.520245
    14  C   -0.845905
    15  P    1.519416
    16  F   -0.788068
    17  F   -0.884251
    18  H    0.046511
 Sum of Mulliken charges =  -0.00000

 Dipole moment (field-independent basis, Debye):
    X=             -1.6704    Y=              0.3510    Z=              0.2373  Tot=              1.7233

 Test job not archived.
 1\1\GINC-SE041\SP\RHF\Aug-CC-pVDZ\C4H10F2P2\OHZDE\09-Apr-2025\0\\#t hf
  aug-cc-pvdz iop(5/13=1,5/36=2,99/5=2) pseudo=read geom=check guess=(r
 ead,tcheck) scf=(maxcycle=1)\\title\\0,1\H,0,-0.66372889,3.26375392,-1
 .41484082\H,0,0.57607353,2.07688321,-1.82463407\H,0,-0.55842324,2.6448
 712,-3.06242126\H,0,-2.87100416,-1.40911587,-1.55416728\H,0,0.42715494
 ,-1.23076192,-3.33739031\H,0,-2.60862974,-1.75549695,-3.26751243\H,0,-
 1.47646146,-2.36750684,-2.07165071\H,0,0.4157342,0.51539066,-3.5906339
 2\H,0,-0.67072928,-0.53226666,-4.50884988\P,0,-1.6570918,1.05342876,-1

 Normal termination of Gaussian 16 at Wed Apr  9 19:34:57 2025.
