 Gaussian 16, Revision C.01,

 ----------------------------------------------------------------------
 #t hf aug-cc-pvdz symm=none int=(grid=ultrafine) guess=(read,tcheck) s
 table=(opt,rrhf)
 ----------------------------------------------------------------------
 -----
 title
 -----
 Symbolic Z-matrix:
 Charge =  0 Multiplicity = 1

 SCF Done:  E(RHF) =  -601.597826514     A.U. after   14 cycles
 Normal termination of Gaussian 16 at Wed Apr  9 19:23:43 2025.
 Gaussian 16:  ES64L-G16RevC.01  3-Jul-2019

 ----------------------------------------------------------------------
 #t hf aug-cc-pvdz iop(5/13=1,5/36=2,99/5=2) pseudo=read geom=check gue
 ss=(read,tcheck) scf=(maxcycle=1)
 ----------------------------------------------------------------------
 -----
 title
 -----
 Structure from the checkpoint file:  "HB300SPXx10_106_1.11_1.05_sulfane_methylazide_dimer_mol1.chk"
 Charge =  0 Multiplicity = 1

                         Standard orientation:
 ---------------------------------------------------------------------
 Center     Atomic      Atomic             Coordinates (Angstroms)
 Number     Number       Type             X           Y           Z
 ---------------------------------------------------------------------
      1          1           0       -1.424198   -0.537338   -0.013139
      2          1           0       -2.906488   -0.408377    1.239863
      3         16           0       -2.741888   -0.273666   -0.084111
      4          1           0        1.337834    1.941804   -0.910884
      5          1           0        1.387222    1.978909    0.868765
      6          1           0       -0.167580    1.871094    0.022710
      7          6           0        0.872442    1.564807    0.000762
      8          7           0        0.873633    0.092716    0.031735
      9          7           0        1.972699   -0.448869    0.004136
     10          7           0        2.926349   -1.051885   -0.016743
 ---------------------------------------------------------------------

 SCF Done:  E(RHF) =  -601.864606141     A.U. after    2 cycles

 The electronic state is 1-A.
 Alpha  occ. eigenvalues --  -93.95235 -15.72822 -15.61321 -15.55466 -11.29182
 Alpha  occ. eigenvalues --   -8.23337  -6.21215  -6.21100  -6.20857  -1.52338
 Alpha  occ. eigenvalues --   -1.33806  -1.02771  -1.00855  -0.78291  -0.77079
 Alpha  occ. eigenvalues --   -0.76361  -0.72326  -0.61649  -0.60157  -0.58531
 Alpha  occ. eigenvalues --   -0.50832  -0.48757  -0.43690  -0.38284
 Alpha virt. eigenvalues --    0.03124   0.04810   0.05305   0.05729   0.06807
 Alpha virt. eigenvalues --    0.07933   0.08996   0.10053   0.10712   0.11271
 Alpha virt. eigenvalues --    0.12773   0.13824   0.15386   0.16067   0.17238

 Mulliken charges:
               1
     1  H    0.366697
     2  H    0.251671
     3  S   -0.569943
     4  H    0.163206
     5  H    0.160062
     6  H    0.043924
     7  C   -0.192985
     8  N    0.425141
     9  N   -1.613390
    10  N    0.965617
 Sum of Mulliken charges =  -0.00000

 Dipole moment (field-independent basis, Debye):
    X=              0.9533    Y=              2.0199    Z=              0.8351  Tot=              2.3845

 Test job not archived.
 1\1\GINC-SE116\SP\RHF\Aug-CC-pVDZ\C1H5N3S1\OHZDE\09-Apr-2025\0\\#t hf
 aug-cc-pvdz iop(5/13=1,5/36=2,99/5=2) pseudo=read geom=check guess=(re
 ad,tcheck) scf=(maxcycle=1)\\title\\0,1\H,0,1.21774303,0.78814331,-0.0
 7896573\H,0,1.90622629,2.11329938,-1.32547278\S,0,1.84165876,1.9773473
 1,0.00700442\H,0,-2.32715061,0.10099099,1.16299378\H,0,-2.57799212,0.2
 0710449,-0.59677485\H,0,-1.43518626,1.29875389,0.20767549\C,0,-1.84316
 057,0.29402109,0.20470975\N,0,-0.70639303,-0.61624099,-0.01253429\N,0,
 -0.96818088,-1.81323412,-0.03891219\N,0,-1.09252145,-2.9340471,-0.0817

 Normal termination of Gaussian 16 at Wed Apr  9 19:23:46 2025.
