 Gaussian 16, Revision C.01,

 ----------------------------------------------------------------------
 #t hf aug-cc-pvdz symm=none int=(grid=ultrafine) guess=(read,tcheck) s
 table=(opt,rrhf)
 ----------------------------------------------------------------------
 -----
 title
 -----
 Symbolic Z-matrix:
 Charge =  0 Multiplicity = 1

 SCF Done:  E(RHF) =  -1102.13964365     A.U. after   13 cycles
 Normal termination of Gaussian 16 at Wed Apr  9 19:26:38 2025.
 Gaussian 16:  ES64L-G16RevC.01  3-Jul-2019

 ----------------------------------------------------------------------
 #t hf aug-cc-pvdz iop(5/13=1,5/36=2,99/5=2) pseudo=read geom=check gue
 ss=(read,tcheck) scf=(maxcycle=1)
 ----------------------------------------------------------------------
 -----
 title
 -----
 Structure from the checkpoint file:  "HB300SPXx10_1111_4.15_0.80_aceticacid_dimethyldisulfide_dimer_mol1.chk"
 Charge =  0 Multiplicity = 1

                         Standard orientation:
 ---------------------------------------------------------------------
 Center     Atomic      Atomic             Coordinates (Angstroms)
 Number     Number       Type             X           Y           Z
 ---------------------------------------------------------------------
      1          6           0        2.611317   -0.069474   -0.048391
      2          8           0        2.321486    1.091391   -0.209786
      3          8           0        1.707096   -1.061460   -0.057675
      4          1           0        0.821016   -0.675794   -0.226618
      5          6           0        4.004281   -0.584742    0.184320
      6          1           0        4.703644    0.243501    0.205856
      7          1           0        4.043242   -1.133923    1.123984
      8          1           0        4.274757   -1.281148   -0.608382
      9          1           0       -4.577801   -0.551847    0.227782
     10          1           0       -3.805417    0.000675   -1.273866
     11          1           0       -3.786221    1.034192    0.180867
     12          1           0       -0.257941    1.248303    1.580538
     13          1           0       -1.228809    2.337944    0.550870
     14          1           0        0.507196    2.077487    0.212839
     15          6           0       -3.745983    0.013839   -0.189654
     16         16           0       -2.232970   -0.826333    0.374174
     17         16           0       -0.746109    0.236989   -0.558557
     18          6           0       -0.412456    1.622157    0.573049
 ---------------------------------------------------------------------

 SCF Done:  E(RHF) =  -1102.58219196     A.U. after    2 cycles

 The electronic state is 1-A.
 Alpha  occ. eigenvalues --  -93.97831 -93.97651 -20.56322 -20.52436 -11.38399
 Alpha  occ. eigenvalues --  -11.27721 -11.26282 -11.24345  -8.26027  -8.25668
 Alpha  occ. eigenvalues --   -6.23810  -6.23600  -6.23474  -6.23438  -6.23265
 Alpha  occ. eigenvalues --   -6.23034  -1.52940  -1.43763  -1.13028  -1.03663
 Alpha  occ. eigenvalues --   -1.01872  -0.92562  -0.83287  -0.80304  -0.70446
 Alpha  occ. eigenvalues --   -0.67420  -0.63859  -0.62640  -0.61396  -0.60690
 Alpha  occ. eigenvalues --   -0.59208  -0.57107  -0.56175  -0.54706  -0.54421
 Alpha  occ. eigenvalues --   -0.50819  -0.45925  -0.45580  -0.43419  -0.37852
 Alpha  occ. eigenvalues --   -0.36754
 Alpha virt. eigenvalues --    0.03320   0.04007   0.04370   0.04638   0.05750
 Alpha virt. eigenvalues --    0.05924   0.06305   0.07267   0.08173   0.08398
 Alpha virt. eigenvalues --    0.09956   0.11007   0.11980   0.12079   0.13582

 Mulliken charges:
               1
     1  C    1.853630
     2  O   -1.253242
     3  O   -1.485322
     4  H    1.087652
     5  C   -0.568783
     6  H    0.169839
     7  H    0.222823
     8  H    0.230942
     9  H    0.168083
    10  H    0.220488
    11  H    0.192316
    12  H    0.183784
    13  H    0.106733
    14  H    0.269611
    15  C   -0.736236
    16  S    0.236713
    17  S   -0.354870
    18  C   -0.544160
 Sum of Mulliken charges =  -0.00000

 Dipole moment (field-independent basis, Debye):
    X=             -1.6372    Y=              0.5124    Z=              0.6813  Tot=              1.8459

 Test job not archived.
 1\1\GINC-SE014\SP\RHF\Aug-CC-pVDZ\C4H10O2S2\OHZDE\09-Apr-2025\0\\#t hf
  aug-cc-pvdz iop(5/13=1,5/36=2,99/5=2) pseudo=read geom=check guess=(r
 ead,tcheck) scf=(maxcycle=1)\\title\\0,1\C,0,2.51189353,-1.3688008,0.0
 1480743\O,0,1.76216303,-1.97148126,0.7444221\O,0,2.20838592,-0.1819016
 3,-0.53372859\H,0,1.31541707,0.08523139,-0.22768185\C,0,3.88111819,-1.
 83853704,-0.39087365\H,0,4.08390343,-2.80677129,0.05292751\H,0,3.94369
 33,-1.90220497,-1.47628393\H,0,4.62800978,-1.11523999,-0.06604891\H,0,
 -3.444262,2.61530364,-0.78737197\H,0,-2.68249992,2.51192479,0.81445039

 Normal termination of Gaussian 16 at Wed Apr  9 19:26:46 2025.
