 Gaussian 16, Revision C.01,

 ----------------------------------------------------------------------
 #t hf aug-cc-pvdz symm=none int=(grid=ultrafine) guess=(read,tcheck) s
 table=(opt,rrhf)
 ----------------------------------------------------------------------
 -----
 title
 -----
 Symbolic Z-matrix:
 Charge =  0 Multiplicity = 1

 SCF Done:  E(RHF) =  -609.887650416     A.U. after   13 cycles
 Normal termination of Gaussian 16 at Wed Apr  9 19:24:12 2025.
 Gaussian 16:  ES64L-G16RevC.01  3-Jul-2019

 ----------------------------------------------------------------------
 #t hf aug-cc-pvdz iop(5/13=1,5/36=2,99/5=2) pseudo=read geom=check gue
 ss=(read,tcheck) scf=(maxcycle=1)
 ----------------------------------------------------------------------
 -----
 title
 -----
 Structure from the checkpoint file:  "HB300SPXx10_1054_4.09_0.95_ammonia_tetrahydrothiophene_dimer_mol1.chk"
 Charge =  0 Multiplicity = 1

                         Standard orientation:
 ---------------------------------------------------------------------
 Center     Atomic      Atomic             Coordinates (Angstroms)
 Number     Number       Type             X           Y           Z
 ---------------------------------------------------------------------
      1          7           0       -2.695816    0.537207   -0.234012
      2          1           0       -2.100788   -0.275132   -0.094805
      3          1           0       -3.380436    0.539564    0.511688
      4          1           0       -3.204051    0.394127   -1.097715
      5          1           0        1.357653   -0.208803    1.952128
      6          1           0       -0.378986    0.097358    2.072186
      7          1           0        1.188315    2.061219    1.125948
      8          1           0       -0.263208   -0.004970   -1.815981
      9          1           0       -0.339812    1.713239    0.308625
     10          1           0        1.250476   -0.914449   -1.934915
     11          1           0        1.394481    1.716105   -1.446366
     12          1           0        2.403487    0.633436   -0.488794
     13         16           0        0.144779   -1.321165    0.177881
     14          6           0        0.460902    0.033360    1.385294
     15          6           0        0.639302    1.307465    0.560916
     16          6           0        1.371693    0.905035   -0.718192
     17          6           0        0.632621   -0.308110   -1.278021
 ---------------------------------------------------------------------

 SCF Done:  E(RHF) =  -610.183574524     A.U. after    2 cycles

 The electronic state is 1-A.
 Alpha  occ. eigenvalues --  -93.93020 -15.47483 -11.25941 -11.25898 -11.23615
 Alpha  occ. eigenvalues --  -11.23028  -8.21154  -6.18955  -6.18837  -6.18619
 Alpha  occ. eigenvalues --   -1.13907  -1.13100  -0.98717  -0.98107  -0.79543
 Alpha  occ. eigenvalues --   -0.79399  -0.67085  -0.65640  -0.65018  -0.64487
 Alpha  occ. eigenvalues --   -0.60443  -0.55230  -0.51144  -0.49748  -0.48637
 Alpha  occ. eigenvalues --   -0.48418  -0.45795  -0.42921  -0.34161
 Alpha virt. eigenvalues --    0.03480   0.03805   0.03926   0.04576   0.05986
 Alpha virt. eigenvalues --    0.06281   0.06536   0.07665   0.07957   0.08869
 Alpha virt. eigenvalues --    0.09263   0.11456   0.13278   0.14581   0.14858

 Mulliken charges:
               1
     1  N   -0.061402
     2  H   -0.168166
     3  H    0.164360
     4  H    0.173390
     5  H    0.111513
     6  H    0.155590
     7  H    0.143795
     8  H    0.169697
     9  H    0.207835
    10  H    0.148200
    11  H    0.129328
    12  H    0.110793
    13  S    0.371593
    14  C   -0.529087
    15  C   -0.283229
    16  C   -0.353593
    17  C   -0.490616
 Sum of Mulliken charges =  -0.00000

 Dipole moment (field-independent basis, Debye):
    X=              0.0274    Y=              0.8830    Z=             -0.1967  Tot=              0.9051

 Test job not archived.
 1\1\GINC-SE212\SP\RHF\Aug-CC-pVDZ\C4H11N1S1\OHZDE\09-Apr-2025\0\\#t hf
  aug-cc-pvdz iop(5/13=1,5/36=2,99/5=2) pseudo=read geom=check guess=(r
 ead,tcheck) scf=(maxcycle=1)\\title\\0,1\N,0,-1.82627315,2.2398073,0.1
 9813908\H,0,-1.3275361,1.71497926,-0.51540753\H,0,-2.80551666,2.240204
 76,-0.05849198\H,0,-1.50884454,3.19950412,0.14356214\H,0,-0.53305589,-
 2.21774338,-0.27533523\H,0,-1.83470691,-1.02212079,-0.29122069\H,0,-0.
 63737524,-1.55611192,2.05181131\H,0,1.0308698,1.52177658,0.38610868\H,
 0,-0.96884149,0.12572158,1.62071236\H,0,2.33992026,0.49542827,-0.21848

 Normal termination of Gaussian 16 at Wed Apr  9 19:24:18 2025.
