 Gaussian 16, Revision C.01,

 ----------------------------------------------------------------------
 #t hf aug-cc-pvdz symm=none int=(grid=ultrafine) guess=(read,tcheck) s
 table=(opt,rrhf)
 ----------------------------------------------------------------------
 -----
 title
 -----
 Symbolic Z-matrix:
 Charge =  0 Multiplicity = 1

 SCF Done:  E(RHF) =  -1091.85321183     A.U. after   14 cycles
 Normal termination of Gaussian 16 at Wed Apr  9 19:32:17 2025.
 Gaussian 16:  ES64L-G16RevC.01  3-Jul-2019

 ----------------------------------------------------------------------
 #t hf aug-cc-pvdz iop(5/13=1,5/36=2,99/5=2) pseudo=read geom=check gue
 ss=(read,tcheck) scf=(maxcycle=1)
 ----------------------------------------------------------------------
 -----
 title
 -----
 Structure from the checkpoint file:  "HB300SPXx10_1405_5.03_1.00_dimethylsulfoxide_phosphineF2_dimer_mol1.chk"
 Charge =  0 Multiplicity = 1

                         Standard orientation:
 ---------------------------------------------------------------------
 Center     Atomic      Atomic             Coordinates (Angstroms)
 Number     Number       Type             X           Y           Z
 ---------------------------------------------------------------------
      1          1           0        2.093881    1.674432   -1.456134
      2          1           0        2.892404    1.754306    0.132806
      3          1           0        1.100083    1.828443    0.018205
      4          1           0        1.561105   -1.587737    1.683679
      5          1           0        0.858305    0.049831    1.780922
      6          6           0        2.010134    1.412237   -0.404904
      7         16           0        1.932653   -0.395679   -0.324872
      8          8           0        0.635791   -0.800242   -0.952603
      9          6           0        1.719541   -0.534450    1.468902
     10          1           0        2.628367   -0.189000    1.957809
     11         15           0       -1.819013   -0.377214   -0.097977
     12          9           0       -3.351962    0.106868    0.059062
     13          9           0       -1.150859    0.957942    0.523919
     14          1           0       -1.710380    0.010726   -1.459672
 ---------------------------------------------------------------------

 SCF Done:  E(RHF) =  -1092.30245171     A.U. after    2 cycles

 The electronic state is 1-A.
 Alpha  occ. eigenvalues --  -94.08088 -84.38580 -26.46392 -26.45020 -20.51066
 Alpha  occ. eigenvalues --  -11.28115 -11.28018  -8.34996  -6.84143  -6.32861
 Alpha  occ. eigenvalues --   -6.32711  -6.32491  -4.36892  -4.36365  -4.35281
 Alpha  occ. eigenvalues --   -1.59839  -1.55164  -1.45240  -1.10027  -0.99303
 Alpha  occ. eigenvalues --   -0.86436  -0.84674  -0.69011  -0.68774  -0.67644
 Alpha  occ. eigenvalues --   -0.65322  -0.64716  -0.64330  -0.62651  -0.60217
 Alpha  occ. eigenvalues --   -0.59557  -0.59210  -0.56397  -0.54721  -0.53108
 Alpha  occ. eigenvalues --   -0.43804  -0.38578  -0.35498
 Alpha virt. eigenvalues --    0.02828   0.03789   0.04779   0.05241   0.06648
 Alpha virt. eigenvalues --    0.06855   0.07674   0.08629   0.09525   0.10855
 Alpha virt. eigenvalues --    0.12283   0.12911   0.13079   0.14655   0.15169

 Mulliken charges:
               1
     1  H    0.189941
     2  H    0.193887
     3  H    0.189570
     4  H    0.199250
     5  H    0.189797
     6  C   -0.609781
     7  S    1.620300
     8  O   -1.452954
     9  C   -0.628337
    10  H    0.195106
    11  P    1.488042
    12  F   -0.786236
    13  F   -0.852872
    14  H    0.064288
 Sum of Mulliken charges =  -0.00000

 Dipole moment (field-independent basis, Debye):
    X=              4.3644    Y=              1.2358    Z=              1.5490  Tot=              4.7932

 Test job not archived.
 1\1\GINC-SE135\SP\RHF\Aug-CC-pVDZ\C2H7F2O1P1S1\OHZDE\09-Apr-2025\0\\#t
  hf aug-cc-pvdz iop(5/13=1,5/36=2,99/5=2) pseudo=read geom=check guess
 =(read,tcheck) scf=(maxcycle=1)\\title\\0,1\H,0,1.67395499,0.82417178,
 -3.38423362\H,0,0.49124302,-0.02078366,-4.41184902\H,0,0.89589517,-0.6
 6534236,-2.78340018\H,0,-2.718683,0.46280377,-2.2188292\H,0,-1.5421980
 9,-0.87905323,-2.20106353\C,0,0.76564588,0.22768029,-3.38836814\S,0,-0
 .5351395,1.25679703,-2.66046249\O,0,-0.17783951,1.44910918,-1.22000404
 \C,0,-1.85989706,0.022286,-2.71790313\H,0,-2.10168806,-0.18449539,-3.7

 Normal termination of Gaussian 16 at Wed Apr  9 19:32:22 2025.
