 Gaussian 16, Revision C.01,

 ----------------------------------------------------------------------
 #t hf aug-cc-pvdz symm=none int=(grid=ultrafine) guess=(read,tcheck) s
 table=(opt,rrhf)
 ----------------------------------------------------------------------
 -----
 title
 -----
 Symbolic Z-matrix:
 Charge =  0 Multiplicity = 1

 SCF Done:  E(RHF) =  -969.525128762     A.U. after   13 cycles
 Normal termination of Gaussian 16 at Wed Apr  9 19:24:14 2025.
 Gaussian 16:  ES64L-G16RevC.01  3-Jul-2019

 ----------------------------------------------------------------------
 #t hf aug-cc-pvdz iop(5/13=1,5/36=2,99/5=2) pseudo=read geom=check gue
 ss=(read,tcheck) scf=(maxcycle=1)
 ----------------------------------------------------------------------
 -----
 title
 -----
 Structure from the checkpoint file:  "HB300SPXx10_1062_4.10_0.85_methylamine_dimethyldisulfide_dimer_mol1.chk"
 Charge =  0 Multiplicity = 1

                         Standard orientation:
 ---------------------------------------------------------------------
 Center     Atomic      Atomic             Coordinates (Angstroms)
 Number     Number       Type             X           Y           Z
 ---------------------------------------------------------------------
      1          7           0        1.909922    0.960161   -0.014772
      2          1           0        2.011263    1.919201   -0.319350
      3          1           0        1.235857    0.522820   -0.631753
      4          6           0        3.193287    0.260645   -0.072856
      5          1           0        3.058320   -0.764755    0.269694
      6          1           0        3.653530    0.223289   -1.066651
      7          1           0        3.897957    0.738272    0.606853
      8          1           0       -1.965221    2.460872    0.636210
      9          1           0       -0.937205    2.167832   -0.781423
     10          1           0       -0.341436    1.768311    0.851370
     11          1           0       -0.282324   -1.999264    1.574581
     12          1           0        0.884742   -0.665956    1.316246
     13          1           0        1.150405   -2.249284    0.554548
     14          6           0       -1.212594    1.802468    0.204201
     15         16           0       -1.997524    0.163661    0.079351
     16         16           0       -0.502616   -1.041874   -0.636795
     17          6           0        0.397124   -1.528288    0.870686
 ---------------------------------------------------------------------

 SCF Done:  E(RHF) =  -969.846002275     A.U. after    2 cycles

 The electronic state is 1-A.
 Alpha  occ. eigenvalues --  -93.96663 -93.96538 -15.47814 -11.26326 -11.26014
 Alpha  occ. eigenvalues --  -11.25333  -8.24676  -8.24534  -6.22484  -6.22344
 Alpha  occ. eigenvalues --   -6.22267  -6.22129  -6.22066  -6.21906  -1.17396
 Alpha  occ. eigenvalues --   -1.11511  -1.02369  -0.91590  -0.90963  -0.80724
 Alpha  occ. eigenvalues --   -0.70239  -0.63356  -0.61842  -0.60388  -0.60120
 Alpha  occ. eigenvalues --   -0.58252  -0.57364  -0.54458  -0.52913  -0.49757
 Alpha  occ. eigenvalues --   -0.44788  -0.42763  -0.36502  -0.35496
 Alpha virt. eigenvalues --    0.03421   0.03979   0.04334   0.04898   0.05612
 Alpha virt. eigenvalues --    0.06049   0.06596   0.07339   0.07886   0.09389
 Alpha virt. eigenvalues --    0.09762   0.10494   0.11724   0.13080   0.14249

 Mulliken charges:
               1
     1  N    0.059067
     2  H    0.172581
     3  H    0.074370
     4  C   -0.427044
     5  H    0.007066
     6  H    0.101408
     7  H    0.085441
     8  H    0.090598
     9  H    0.193743
    10  H    0.306709
    11  H    0.053017
    12  H    0.252170
    13  H    0.246527
    14  C   -0.683085
    15  S    0.136485
    16  S   -0.101930
    17  C   -0.567121
 Sum of Mulliken charges =  -0.00000

 Dipole moment (field-independent basis, Debye):
    X=              1.9477    Y=              1.1261    Z=              0.3512  Tot=              2.2771

 Test job not archived.
 1\1\GINC-SE173\SP\RHF\Aug-CC-pVDZ\C3H11N1S2\OHZDE\09-Apr-2025\0\\#t hf
  aug-cc-pvdz iop(5/13=1,5/36=2,99/5=2) pseudo=read geom=check guess=(r
 ead,tcheck) scf=(maxcycle=1)\\title\\0,1\N,0,-0.790217,0.77789413,2.28
 472778\H,0,-1.73224372,0.61681804,2.6155392\H,0,-0.85550262,0.99181266
 ,1.29666237\C,0,-0.16836631,1.8838218,3.01270443\H,0,0.84688345,2.0289
 6517,2.64500493\H,0,-0.69345824,2.84224623,2.93178871\H,0,-0.0959132,1
 .62767695,4.06903376\H,0,-1.89560843,-2.61065393,0.05123323\H,0,-2.424
 79016,-0.91813193,0.13902945\H,0,-1.09200702,-1.49178329,1.17594082\H,

 Normal termination of Gaussian 16 at Wed Apr  9 19:24:21 2025.
