 Gaussian 16, Revision C.01,

 ----------------------------------------------------------------------
 #t hf aug-cc-pvdz symm=none int=(grid=ultrafine) guess=(read,tcheck) s
 table=(opt,rrhf)
 ----------------------------------------------------------------------
 -----
 title
 -----
 Symbolic Z-matrix:
 Charge =  0 Multiplicity = 1

 SCF Done:  E(RHF) =  -1102.15215545     A.U. after   13 cycles
 Normal termination of Gaussian 16 at Wed Apr  9 19:26:34 2025.
 Gaussian 16:  ES64L-G16RevC.01  3-Jul-2019

 ----------------------------------------------------------------------
 #t hf aug-cc-pvdz iop(5/13=1,5/36=2,99/5=2) pseudo=read geom=check gue
 ss=(read,tcheck) scf=(maxcycle=1)
 ----------------------------------------------------------------------
 -----
 title
 -----
 Structure from the checkpoint file:  "HB300SPXx10_1113_4.15_0.90_aceticacid_dimethyldisulfide_dimer_mol1.chk"
 Charge =  0 Multiplicity = 1

                         Standard orientation:
 ---------------------------------------------------------------------
 Center     Atomic      Atomic             Coordinates (Angstroms)
 Number     Number       Type             X           Y           Z
 ---------------------------------------------------------------------
      1          6           0        2.733173   -0.069831   -0.042618
      2          8           0        2.412965    1.083904   -0.197600
      3          8           0        1.854269   -1.084336   -0.049363
      4          1           0        0.957556   -0.720603   -0.210675
      5          6           0        4.140322   -0.550529    0.178444
      6          1           0        4.818663    0.295060    0.198247
      7          1           0        4.199775   -1.101933    1.115729
      8          1           0        4.422715   -1.237006   -0.618750
      9          1           0       -4.638330   -0.625667    0.242050
     10          1           0       -3.890765   -0.048370   -1.262835
     11          1           0       -3.887438    0.980049    0.195628
     12          1           0       -0.355913    1.278306    1.571514
     13          1           0       -1.361247    2.346741    0.552757
     14          1           0        0.378358    2.131509    0.201671
     15          6           0       -3.824039   -0.037617   -0.179021
     16         16           0       -2.286337   -0.841269    0.371083
     17         16           0       -0.833439    0.262685   -0.567943
     18          6           0       -0.526929    1.651761    0.566547
 ---------------------------------------------------------------------

 SCF Done:  E(RHF) =  -1102.59428427     A.U. after    2 cycles

 The electronic state is 1-A.
 Alpha  occ. eigenvalues --  -93.97805 -93.97469 -20.57451 -20.52687 -11.38647
 Alpha  occ. eigenvalues --  -11.27563 -11.26483 -11.24586  -8.25876  -8.25487
 Alpha  occ. eigenvalues --   -6.23675  -6.23462  -6.23293  -6.23280  -6.23083
 Alpha  occ. eigenvalues --   -6.22853  -1.53278  -1.43983  -1.12677  -1.03356
 Alpha  occ. eigenvalues --   -1.02180  -0.92401  -0.82561  -0.80764  -0.70296
 Alpha  occ. eigenvalues --   -0.67552  -0.64098  -0.62485  -0.61269  -0.60683
 Alpha  occ. eigenvalues --   -0.59119  -0.57329  -0.56352  -0.55025  -0.54491
 Alpha  occ. eigenvalues --   -0.50638  -0.46255  -0.45649  -0.43671  -0.37768
 Alpha  occ. eigenvalues --   -0.36579
 Alpha virt. eigenvalues --    0.03374   0.03968   0.04379   0.04663   0.05724
 Alpha virt. eigenvalues --    0.05898   0.06264   0.07236   0.08104   0.08388
 Alpha virt. eigenvalues --    0.09947   0.10930   0.11860   0.12077   0.13662

 Mulliken charges:
               1
     1  C    1.874836
     2  O   -1.234445
     3  O   -1.414455
     4  H    0.880022
     5  C   -0.578010
     6  H    0.173701
     7  H    0.222174
     8  H    0.230843
     9  H    0.168516
    10  H    0.221374
    11  H    0.191103
    12  H    0.191688
    13  H    0.124370
    14  H    0.253460
    15  C   -0.743863
    16  S    0.209482
    17  S   -0.185135
    18  C   -0.585659
 Sum of Mulliken charges =  -0.00000

 Dipole moment (field-independent basis, Debye):
    X=             -1.4511    Y=              0.4446    Z=              0.7120  Tot=              1.6764

 Test job not archived.
 1\1\GINC-SE026\SP\RHF\Aug-CC-pVDZ\C4H10O2S2\OHZDE\09-Apr-2025\0\\#t hf
  aug-cc-pvdz iop(5/13=1,5/36=2,99/5=2) pseudo=read geom=check guess=(r
 ead,tcheck) scf=(maxcycle=1)\\title\\0,1\C,0,2.51189353,-1.3688008,0.0
 1480743\O,0,1.76216303,-1.97148126,0.7444221\O,0,2.20838592,-0.1819016
 3,-0.53372859\H,0,1.31541707,0.08523139,-0.22768185\C,0,3.88111819,-1.
 83853704,-0.39087365\H,0,4.08390343,-2.80677129,0.05292751\H,0,3.94369
 33,-1.90220497,-1.47628393\H,0,4.62800978,-1.11523999,-0.06604891\H,0,
 -3.65414313,2.65567856,-0.70115812\H,0,-2.89238105,2.55229971,0.900664

 Normal termination of Gaussian 16 at Wed Apr  9 19:26:42 2025.
