 Gaussian 16, Revision C.01,

 ----------------------------------------------------------------------
 #t hf aug-cc-pvdz symm=none int=(grid=ultrafine) guess=(read,tcheck) s
 table=(opt,rrhf)
 ----------------------------------------------------------------------
 -----
 title
 -----
 Symbolic Z-matrix:
 Charge =  0 Multiplicity = 1

 SCF Done:  E(RHF) =  -3015.76415422     A.U. after   14 cycles
 Normal termination of Gaussian 16 at Wed Apr  9 19:30:06 2025.
 Gaussian 16:  ES64L-G16RevC.01  3-Jul-2019

 ----------------------------------------------------------------------
 #t hf aug-cc-pvdz iop(5/13=1,5/36=2,99/5=2) pseudo=read geom=check gue
 ss=(read,tcheck) scf=(maxcycle=1)
 ----------------------------------------------------------------------
 -----
 title
 -----
 Structure from the checkpoint file:  "HB300SPXx10_1345_4.39_1.00_hydrogenchloride_P4S3_dimer_mol1.chk"
 Charge =  0 Multiplicity = 1

                         Standard orientation:
 ---------------------------------------------------------------------
 Center     Atomic      Atomic             Coordinates (Angstroms)
 Number     Number       Type             X           Y           Z
 ---------------------------------------------------------------------
      1          1           0       -2.631313   -0.480419   -0.503069
      2         17           0       -3.708100    0.006175    0.016299
      3         16           0       -0.399684   -0.718654   -1.560146
      4         15           0       -0.140419    1.323885   -1.076611
      5         16           0       -0.210873   -0.732210    1.668432
      6         16           0        2.487446   -0.660406   -0.122541
      7         15           0        1.872106    1.357001   -0.067889
      8         15           0       -0.009790    1.306997    1.170330
      9         15           0        0.654022   -1.710832    0.004442
 ---------------------------------------------------------------------

 SCF Done:  E(RHF) =  -3016.19835958     A.U. after    2 cycles

 The electronic state is 1-A.
 Alpha  occ. eigenvalues -- -105.57106 -93.99858 -93.99359 -93.99341 -84.38050
 Alpha  occ. eigenvalues --  -84.34222 -84.34153 -84.34113 -10.61881  -8.28116
 Alpha  occ. eigenvalues --   -8.27677  -8.27651  -7.78869  -7.78487  -7.78483
 Alpha  occ. eigenvalues --   -6.84638  -6.81204  -6.81112  -6.81076  -6.25858
 Alpha  occ. eigenvalues --   -6.25685  -6.25479  -6.25420  -6.25396  -6.25244
 Alpha  occ. eigenvalues --   -6.25220  -6.25016  -6.24992  -4.36392  -4.36373
 Alpha  occ. eigenvalues --   -4.36050  -4.33457  -4.33065  -4.32997  -4.32631
 Alpha  occ. eigenvalues --   -4.32589  -4.32530  -4.32507  -4.32386  -4.32332
 Alpha  occ. eigenvalues --   -1.15117  -1.06362  -1.03905  -1.03763  -0.98044
 Alpha  occ. eigenvalues --   -0.76700  -0.73174  -0.73136  -0.62676  -0.55884
 Alpha  occ. eigenvalues --   -0.55301  -0.55024  -0.47762  -0.47644  -0.45230
 Alpha  occ. eigenvalues --   -0.43958  -0.43930  -0.43291  -0.43049  -0.39911
 Alpha  occ. eigenvalues --   -0.36472  -0.33189  -0.33093
 Alpha virt. eigenvalues --    0.03261   0.05269   0.05325   0.05457   0.05875
 Alpha virt. eigenvalues --    0.06281   0.06467   0.07613   0.08473   0.08965
 Alpha virt. eigenvalues --    0.10131   0.10326   0.10871   0.10968   0.11236

 Mulliken charges:
               1
     1  H    0.258831
     2  Cl  -0.183404
     3  S   -0.709661
     4  P    0.359725
     5  S   -0.577853
     6  S   -0.563623
     7  P    0.386544
     8  P    0.383241
     9  P    0.646199
 Sum of Mulliken charges =  -0.00000

 Dipole moment (field-independent basis, Debye):
    X=              1.7203    Y=              1.0343    Z=             -0.2325  Tot=              2.0207

 Test job not archived.
 1\1\GINC-SE113\SP\RHF\Aug-CC-pVDZ\Cl1H1P4S3\OHZDE\09-Apr-2025\0\\#t hf
  aug-cc-pvdz iop(5/13=1,5/36=2,99/5=2) pseudo=read geom=check guess=(r
 ead,tcheck) scf=(maxcycle=1)\\title\\0,1\H,0,-0.57388532,0.23171594,-0
 .00983813\Cl,0,-1.31085335,0.72448843,-0.94794305\S,0,0.90321132,-0.02
 141964,1.96714012\P,0,0.39618944,1.98758674,2.39118072\S,0,-2.22478984
 ,-0.19281382,2.77074378\S,0,0.0493062,-0.11538199,5.0764225\P,0,-0.205
 21928,1.91430125,4.55954628\P,0,-1.78060184,1.86088541,2.94940971\P,0,
 -0.38664937,-1.11665891,3.26304075\\Version=ES64L-G16RevC.01\State=1-A

 Normal termination of Gaussian 16 at Wed Apr  9 19:30:12 2025.
