 Gaussian 16, Revision C.01,

 ----------------------------------------------------------------------
 #t hf aug-cc-pvdz symm=none int=(grid=ultrafine) guess=(read,tcheck) s
 table=(opt,rrhf)
 ----------------------------------------------------------------------
 -----
 title
 -----
 Symbolic Z-matrix:
 Charge =  0 Multiplicity = 1

 SCF Done:  E(RHF) =  -855.909490053     A.U. after   14 cycles
 Normal termination of Gaussian 16 at Wed Apr  9 19:22:45 2025.
 Gaussian 16:  ES64L-G16RevC.01  3-Jul-2019

 ----------------------------------------------------------------------
 #t hf aug-cc-pvdz iop(5/13=1,5/36=2,99/5=2) pseudo=read geom=check gue
 ss=(read,tcheck) scf=(maxcycle=1)
 ----------------------------------------------------------------------
 -----
 title
 -----
 Structure from the checkpoint file:  "HB300SPXx10_1035_4.07_1.00_phosphaalkyne_methanethiol_dimer_mol1.chk"
 Charge =  0 Multiplicity = 1

                         Standard orientation:
 ---------------------------------------------------------------------
 Center     Atomic      Atomic             Coordinates (Angstroms)
 Number     Number       Type             X           Y           Z
 ---------------------------------------------------------------------
      1          1           0       -1.465863    2.138326    1.260115
      2          1           0       -1.723873    2.465302   -0.455950
      3          1           0       -0.141557    1.912499    0.105146
      4         15           0       -2.027315   -1.046313   -0.169869
      5          6           0       -1.619285    0.423094    0.047307
      6          6           0       -1.219037    1.804176    0.250727
      7          1           0        0.928392   -0.211973    1.516071
      8          1           0        2.690570   -0.338636    1.653585
      9          1           0        1.761958   -1.691400    0.991638
     10          1           0        0.932142   -0.277880   -1.131982
     11          6           0        1.826315   -0.609089    1.052728
     12         16           0        2.093750    0.124336   -0.593447
 ---------------------------------------------------------------------

 SCF Done:  E(RHF) =  -856.136446819     A.U. after    2 cycles

 The electronic state is 1-A.
 Alpha  occ. eigenvalues --  -93.94556 -84.26373 -11.29202 -11.26590 -11.26418
 Alpha  occ. eigenvalues --   -8.22654  -6.74026  -6.20515  -6.20370  -6.20141
 Alpha  occ. eigenvalues --   -4.26970  -4.25360  -4.25238  -1.06290  -1.05484
 Alpha  occ. eigenvalues --   -0.91965  -0.88336  -0.67106  -0.62024  -0.60705
 Alpha  occ. eigenvalues --   -0.60549  -0.59087  -0.53374  -0.46702  -0.46495
 Alpha  occ. eigenvalues --   -0.36437  -0.35683  -0.35569
 Alpha virt. eigenvalues --    0.03365   0.03876   0.04740   0.05110   0.06251
 Alpha virt. eigenvalues --    0.06767   0.07224   0.07689   0.07872   0.08922
 Alpha virt. eigenvalues --    0.11265   0.12509   0.12810   0.14309   0.14610

 Mulliken charges:
               1
     1  H    0.256226
     2  H    0.195518
     3  H    0.169565
     4  P    0.804820
     5  C   -0.837265
     6  C   -0.591803
     7  H    0.162502
     8  H    0.155866
     9  H    0.142283
    10  H    0.382946
    11  C   -0.668042
    12  S   -0.172616
 Sum of Mulliken charges =  -0.00000

 Dipole moment (field-independent basis, Debye):
    X=             -0.9905    Y=             -0.4732    Z=              1.1524  Tot=              1.5916

 Test job not archived.
 1\1\GINC-SE113\SP\RHF\Aug-CC-pVDZ\C3H7P1S1\OHZDE\09-Apr-2025\0\\#t hf
 aug-cc-pvdz iop(5/13=1,5/36=2,99/5=2) pseudo=read geom=check guess=(re
 ad,tcheck) scf=(maxcycle=1)\\title\\0,1\H,0,0.38933231,2.34404549,-1.6
 8180664\H,0,-1.19987448,1.75919838,-2.18254684\H,0,0.10218747,0.605834
 91,-1.86864837\P,0,-1.17058474,1.34195856,1.32892267\C,0,-0.7484701,1.
 45533882,-0.14816129\C,0,-0.34350289,1.5476729,-1.53972175\H,0,1.83230
 688,-0.05445708,0.18551303\H,0,2.875733,-1.47386311,-0.00625271\H,0,1.
 80315009,-1.35549147,1.39589521\H,0,-0.4169929,-1.42223071,-0.10839913

 Normal termination of Gaussian 16 at Wed Apr  9 19:22:49 2025.
