 Gaussian 16, Revision C.01,

 ----------------------------------------------------------------------
 #t hf aug-cc-pvdz symm=none int=(grid=ultrafine) guess=(read,tcheck) s
 table=(opt,rrhf)
 ----------------------------------------------------------------------
 -----
 title
 -----
 Symbolic Z-matrix:
 Charge =  0 Multiplicity = 1

 SCF Done:  E(RHF) =  -1334.38771329     A.U. after   13 cycles
 Normal termination of Gaussian 16 at Wed Apr  9 19:28:50 2025.
 Gaussian 16:  ES64L-G16RevC.01  3-Jul-2019

 ----------------------------------------------------------------------
 #t hf aug-cc-pvdz iop(5/13=1,5/36=2,99/5=2) pseudo=read geom=check gue
 ss=(read,tcheck) scf=(maxcycle=1)
 ----------------------------------------------------------------------
 -----
 title
 -----
 Structure from the checkpoint file:  "HB300SPXx10_1312_4.36_0.85_hydrogenchloride_dimethyldisulfide_dimer_mol1.chk"
 Charge =  0 Multiplicity = 1

                         Standard orientation:
 ---------------------------------------------------------------------
 Center     Atomic      Atomic             Coordinates (Angstroms)
 Number     Number       Type             X           Y           Z
 ---------------------------------------------------------------------
      1          1           0       -1.560305   -0.189553    0.393740
      2         17           0       -2.708727   -0.573059   -0.094992
      3          1           0        3.521105   -1.130971   -0.532471
      4          1           0        3.209388   -0.181868    0.936552
      5          1           0        3.070865    0.577829   -0.672856
      6          1           0       -0.704736    1.341848   -1.413171
      7          1           0        0.793019    2.219176   -0.988363
      8          1           0       -0.733750    2.615554   -0.173666
      9          6           0        2.920562   -0.332348   -0.099260
     10         16           0        1.193046   -0.895129   -0.204480
     11         16           0        0.168353    0.620115    0.725866
     12          6           0       -0.142163    1.814050   -0.613586
 ---------------------------------------------------------------------

 SCF Done:  E(RHF) =  -1334.68044096     A.U. after    2 cycles

 The electronic state is 1-A.
 Alpha  occ. eigenvalues -- -105.53829 -93.99239 -93.98489 -11.28407 -11.28393
 Alpha  occ. eigenvalues --  -10.58744  -8.27330  -8.26498  -7.75707  -7.75368
 Alpha  occ. eigenvalues --   -7.75366  -6.25112  -6.24904  -6.24742  -6.24304
 Alpha  occ. eigenvalues --   -6.24087  -6.23853  -1.14179  -1.05123  -1.03099
 Alpha  occ. eigenvalues --   -0.93709  -0.83075  -0.64826  -0.63122  -0.62078
 Alpha  occ. eigenvalues --   -0.60320  -0.59427  -0.55781  -0.51939  -0.46524
 Alpha  occ. eigenvalues --   -0.45134  -0.45092  -0.38483  -0.37624
 Alpha virt. eigenvalues --    0.02922   0.03633   0.04546   0.05208   0.06507
 Alpha virt. eigenvalues --    0.07049   0.07895   0.08648   0.09786   0.11893
 Alpha virt. eigenvalues --    0.12858   0.13832   0.14019   0.14351   0.15021

 Mulliken charges:
               1
     1  H    0.567744
     2  Cl  -0.248462
     3  H    0.171039
     4  H    0.228654
     5  H    0.188542
     6  H    0.144002
     7  H    0.148785
     8  H    0.196208
     9  C   -0.741089
    10  S    0.236128
    11  S   -0.355522
    12  C   -0.536028
 Sum of Mulliken charges =  -0.00000

 Dipole moment (field-independent basis, Debye):
    X=              4.0634    Y=              2.3505    Z=             -0.5772  Tot=              4.7296

 Test job not archived.
 1\1\GINC-SE112\SP\RHF\Aug-CC-pVDZ\C2H7Cl1S2\OHZDE\09-Apr-2025\0\\#t hf
  aug-cc-pvdz iop(5/13=1,5/36=2,99/5=2) pseudo=read geom=check guess=(r
 ead,tcheck) scf=(maxcycle=1)\\title\\0,1\H,0,-0.26068265,0.62653872,-1
 .61580209\Cl,0,0.10581098,1.51670262,-2.49790267\H,0,1.90496179,-1.855
 11363,2.47274881\H,0,0.30662321,-2.4737095,2.00515035\H,0,0.45183663,-
 0.9270533,2.88452004\H,0,-0.49128158,2.01764645,0.47076362\H,0,-1.1807
 3158,1.14266116,1.86808131\H,0,-2.19790363,1.52073171,0.46298608\C,0,0
 .90490509,-1.57803272,2.142239\S,0,1.1265386,-0.71028873,0.55794008\S,

 Normal termination of Gaussian 16 at Wed Apr  9 19:28:54 2025.
