 Gaussian 16, Revision C.01,

 ----------------------------------------------------------------------
 #t hf aug-cc-pvdz symm=none int=(grid=ultrafine) guess=(read,tcheck) s
 table=(opt,rrhf)
 ----------------------------------------------------------------------
 -----
 title
 -----
 Symbolic Z-matrix:
 Charge =  0 Multiplicity = 1

 SCF Done:  E(RHF) =  -1102.14734408     A.U. after   13 cycles
 Normal termination of Gaussian 16 at Wed Apr  9 19:26:34 2025.
 Gaussian 16:  ES64L-G16RevC.01  3-Jul-2019

 ----------------------------------------------------------------------
 #t hf aug-cc-pvdz iop(5/13=1,5/36=2,99/5=2) pseudo=read geom=check gue
 ss=(read,tcheck) scf=(maxcycle=1)
 ----------------------------------------------------------------------
 -----
 title
 -----
 Structure from the checkpoint file:  "HB300SPXx10_1112_4.15_0.85_aceticacid_dimethyldisulfide_dimer_mol1.chk"
 Charge =  0 Multiplicity = 1

                         Standard orientation:
 ---------------------------------------------------------------------
 Center     Atomic      Atomic             Coordinates (Angstroms)
 Number     Number       Type             X           Y           Z
 ---------------------------------------------------------------------
      1          6           0        2.672016   -0.069791   -0.045404
      2          8           0        2.366693    1.087537   -0.203605
      3          8           0        1.780610   -1.073320   -0.053334
      4          1           0        0.889042   -0.698789   -0.218414
      5          6           0        4.072318   -0.567502    0.181406
      6          1           0        4.761035    0.269638    0.202007
      7          1           0        4.121697   -1.117845    1.119898
      8          1           0        4.348904   -1.258923   -0.613549
      9          1           0       -4.608012   -0.589380    0.235060
     10          1           0       -3.848167   -0.024225   -1.268283
     11          1           0       -3.837083    1.006804    0.188299
     12          1           0       -0.306878    1.263782    1.575850
     13          1           0       -1.295358    2.342703    0.551666
     14          1           0        0.442637    2.105239    0.206997
     15          6           0       -3.785039   -0.012270   -0.184266
     16         16           0       -2.259335   -0.833915    0.372627
     17         16           0       -0.789620    0.250161   -0.563384
     18          6           0       -0.469787    1.637449    0.569615
 ---------------------------------------------------------------------

 SCF Done:  E(RHF) =  -1102.58973968     A.U. after    2 cycles

 The electronic state is 1-A.
 Alpha  occ. eigenvalues --  -93.97830 -93.97555 -20.56933 -20.52567 -11.38528
 Alpha  occ. eigenvalues --  -11.27639 -11.26397 -11.24472  -8.25954  -8.25573
 Alpha  occ. eigenvalues --   -6.23746  -6.23535  -6.23379  -6.23362  -6.23170
 Alpha  occ. eigenvalues --   -6.22939  -1.53106  -1.43871  -1.12833  -1.03493
 Alpha  occ. eigenvalues --   -1.02035  -0.92474  -0.82870  -0.80548  -0.70348
 Alpha  occ. eigenvalues --   -0.67477  -0.63975  -0.62563  -0.61330  -0.60693
 Alpha  occ. eigenvalues --   -0.59161  -0.57216  -0.56261  -0.54862  -0.54479
 Alpha  occ. eigenvalues --   -0.50724  -0.46097  -0.45640  -0.43559  -0.37835
 Alpha  occ. eigenvalues --   -0.36665
 Alpha virt. eigenvalues --    0.03348   0.03988   0.04374   0.04651   0.05737
 Alpha virt. eigenvalues --    0.05911   0.06285   0.07251   0.08140   0.08395
 Alpha virt. eigenvalues --    0.09953   0.10971   0.11921   0.12077   0.13625

 Mulliken charges:
               1
     1  C    1.865582
     2  O   -1.243876
     3  O   -1.448750
     4  H    0.978815
     5  C   -0.573691
     6  H    0.171848
     7  H    0.222438
     8  H    0.230994
     9  H    0.168186
    10  H    0.221232
    11  H    0.191583
    12  H    0.187851
    13  H    0.115975
    14  H    0.262386
    15  C   -0.741330
    16  S    0.222286
    17  S   -0.266504
    18  C   -0.565025
 Sum of Mulliken charges =  -0.00000

 Dipole moment (field-independent basis, Debye):
    X=             -1.5422    Y=              0.4786    Z=              0.6978  Tot=              1.7591

 Test job not archived.
 1\1\GINC-SE016\SP\RHF\Aug-CC-pVDZ\C4H10O2S2\OHZDE\09-Apr-2025\0\\#t hf
  aug-cc-pvdz iop(5/13=1,5/36=2,99/5=2) pseudo=read geom=check guess=(r
 ead,tcheck) scf=(maxcycle=1)\\title\\0,1\C,0,2.51189353,-1.3688008,0.0
 1480743\O,0,1.76216303,-1.97148126,0.7444221\O,0,2.20838592,-0.1819016
 3,-0.53372859\H,0,1.31541707,0.08523139,-0.22768185\C,0,3.88111819,-1.
 83853704,-0.39087365\H,0,4.08390343,-2.80677129,0.05292751\H,0,3.94369
 33,-1.90220497,-1.47628393\H,0,4.62800978,-1.11523999,-0.06604891\H,0,
 -3.54920257,2.6354911,-0.74426505\H,0,-2.78744048,2.53211225,0.8575573

 Normal termination of Gaussian 16 at Wed Apr  9 19:26:42 2025.
