 Gaussian 16, Revision C.01,

 ----------------------------------------------------------------------
 #t hf aug-cc-pvdz symm=none int=(grid=ultrafine) guess=(read,tcheck) s
 table=(opt,rrhf)
 ----------------------------------------------------------------------
 -----
 title
 -----
 Symbolic Z-matrix:
 Charge =  0 Multiplicity = 1

 SCF Done:  E(RHF) =  -952.358091804     A.U. after   15 cycles

 1\1\GINC-SE226\Stability\RHF\Aug-CC-pVDZ\C4H10S2\OHZDE\09-Apr-2025\0\\
 #t hf aug-cc-pvdz symm=none int=(grid=ultrafine) guess=(read,tcheck) s
 table=(opt,rrhf)\\title\\0,1\H,0,1.94048627,-0.28311522,0.30003006\H,0
 ,2.70886397,-1.74966836,-0.33633756\H,0,2.5169729,-1.54996222,1.410513
 58\H,0,-0.19256655,-1.5118813,1.21090974\C,0,2.06439688,-1.35234501,0.
 4434425\S,0,0.46794236,-2.21627191,0.2804649\H,0,-2.55691955,0.4858941
 7,0.31682214\H,0,-2.61488404,0.94236981,-1.39934705\H,0,-1.97301284,-0
 .62431333,-0.94587392\H,0,1.0887018,1.41804768,-1.73846486\H,0,0.31215

 Normal termination of Gaussian 16 at Wed Apr  9 19:23:16 2025.
 Gaussian 16:  ES64L-G16RevC.01  3-Jul-2019

 ----------------------------------------------------------------------
 #t hf aug-cc-pvdz iop(5/13=1,5/36=2,99/5=2) pseudo=read geom=check gue
 ss=(read,tcheck) scf=(maxcycle=1)
 ----------------------------------------------------------------------
 -----
 title
 -----
 Structure from the checkpoint file:  "HB300SPXx10_1024_4.06_0.95_methanethiol_thioacetone_dimer_mol1.chk"
 Charge =  0 Multiplicity = 1

                         Standard orientation:
 ---------------------------------------------------------------------
 Center     Atomic      Atomic             Coordinates (Angstroms)
 Number     Number       Type             X           Y           Z
 ---------------------------------------------------------------------
      1          1           0        1.169689   -1.360347    0.686912
      2          1           0        2.678157   -0.805090    1.436820
      3          1           0        2.736007   -1.692501   -0.092019
      4          1           0        1.333662    0.242438   -1.385207
      5          6           0        2.166834   -0.976488    0.493192
      6         16           0        2.086350    0.638109   -0.348351
      7          1           0       -1.694295    1.309736   -1.655432
      8          1           0       -2.427716    2.017922   -0.200258
      9          1           0       -0.695294    2.138441   -0.437583
     10          1           0       -1.072764   -0.574055    2.145713
     11          1           0       -0.174456    0.912719    1.768828
     12          6           0       -1.557591    1.486305   -0.594064
     13          6           0       -1.359404    0.209582    0.162666
     14         16           0       -1.382708   -1.249488   -0.557674
     15          6           0       -1.118535    0.379280    1.630435
     16          1           0       -1.899084    1.000717    2.075252
 ---------------------------------------------------------------------

 SCF Done:  E(RHF) =  -952.650724656     A.U. after    2 cycles

 The electronic state is 1-A.
 Alpha  occ. eigenvalues --  -93.94835 -93.92226 -11.33263 -11.26474 -11.25004
 Alpha  occ. eigenvalues --  -11.24979  -8.22934  -8.20528  -6.20798  -6.20652
 Alpha  occ. eigenvalues --   -6.20426  -6.18348  -6.18155  -6.17933  -1.13468
 Alpha  occ. eigenvalues --   -1.06128  -0.97517  -0.97121  -0.88432  -0.73222
 Alpha  occ. eigenvalues --   -0.62929  -0.62089  -0.62079  -0.61456  -0.59476
 Alpha  occ. eigenvalues --   -0.56564  -0.53943  -0.53500  -0.50607  -0.46855
 Alpha  occ. eigenvalues --   -0.39360  -0.36649  -0.34311
 Alpha virt. eigenvalues --    0.03242   0.03619   0.04057   0.04605   0.05723
 Alpha virt. eigenvalues --    0.05923   0.06489   0.07093   0.07903   0.08793
 Alpha virt. eigenvalues --    0.09464   0.10250   0.11694   0.12246   0.13242

 Mulliken charges:
               1
     1  H    0.123712
     2  H    0.184725
     3  H    0.109907
     4  H    0.391873
     5  C   -0.619477
     6  S   -0.189187
     7  H    0.175807
     8  H    0.241581
     9  H    0.250963
    10  H    0.158494
    11  H    0.321083
    12  C   -0.462111
    13  C   -0.460298
    14  S   -0.012331
    15  C   -0.380582
    16  H    0.165839
 Sum of Mulliken charges =  -0.00000

 Dipole moment (field-independent basis, Debye):
    X=             -0.3289    Y=              1.4262    Z=              1.6045  Tot=              2.1717

 Test job not archived.
 1\1\GINC-SE226\SP\RHF\Aug-CC-pVDZ\C4H10S2\OHZDE\09-Apr-2025\0\\#t hf a
 ug-cc-pvdz iop(5/13=1,5/36=2,99/5=2) pseudo=read geom=check guess=(rea
 d,tcheck) scf=(maxcycle=1)\\title\\0,1\H,0,1.94048627,-0.28311522,0.30
 003006\H,0,2.70886397,-1.74966836,-0.33633756\H,0,2.5169729,-1.5499622
 2,1.41051358\H,0,-0.19256655,-1.5118813,1.21090974\C,0,2.06439688,-1.3
 5234501,0.4434425\S,0,0.46794236,-2.21627191,0.2804649\H,0,-2.55691955
 ,0.48589417,0.31682214\H,0,-2.61488404,0.94236981,-1.39934705\H,0,-1.9
 7301284,-0.62431333,-0.94587392\H,0,1.0887018,1.41804768,-1.73846486\H

 Normal termination of Gaussian 16 at Wed Apr  9 19:23:22 2025.
