 Gaussian 16, Revision C.01,

 ----------------------------------------------------------------------
 #t hf aug-cc-pvdz symm=none int=(grid=ultrafine) guess=(read,tcheck) s
 table=(opt,rrhf)
 ----------------------------------------------------------------------
 -----
 title
 -----
 Symbolic Z-matrix:
 Charge =  0 Multiplicity = 1

 SCF Done:  E(RHF) =  -1312.03183370     A.U. after   13 cycles

 1\1\GINC-SE454\Stability\RHF\Aug-CC-pVDZ\C3H10S3\OHZDE\09-Apr-2025\0\\
 #t hf aug-cc-pvdz symm=none int=(grid=ultrafine) guess=(read,tcheck) s
 table=(opt,rrhf)\\title\\0,1\H,0,1.01554051,-2.06430295,-0.26345232\H,
 0,1.41221348,-3.50790796,0.68330627\H,0,2.28776701,-1.9997821,0.978385
 09\H,0,0.09227498,-0.7095981,1.83267489\C,0,1.324424,-2.42503809,0.712
 77693\S,0,0.06941485,-2.04508424,1.97921636\H,0,-2.84762912,0.62085978
 ,0.53013795\H,0,-1.79704067,-0.70633527,-0.00577927\H,0,-2.42352274,0.
 48607273,-1.18640434\H,0,0.39281878,2.83914267,-2.44189341\H,0,-0.6219

 Normal termination of Gaussian 16 at Wed Apr  9 19:28:13 2025.
 Gaussian 16:  ES64L-G16RevC.01  3-Jul-2019

 ----------------------------------------------------------------------
 #t hf aug-cc-pvdz iop(5/13=1,5/36=2,99/5=2) pseudo=read geom=check gue
 ss=(read,tcheck) scf=(maxcycle=1)
 ----------------------------------------------------------------------
 -----
 title
 -----
 Structure from the checkpoint file:  "HB300SPXx10_1175_4.22_1.00_methanethiol_dimethyldisulfide_dimer_mol1.chk"
 Charge =  0 Multiplicity = 1

                         Standard orientation:
 ---------------------------------------------------------------------
 Center     Atomic      Atomic             Coordinates (Angstroms)
 Number     Number       Type             X           Y           Z
 ---------------------------------------------------------------------
      1          1           0        1.497559   -1.540823    0.830414
      2          1           0        3.238436   -1.860739    0.898962
      3          1           0        2.371559   -2.059109   -0.629856
      4          1           0        1.751909    0.549072   -0.797173
      5          6           0        2.432102   -1.472661    0.282193
      6         16           0        2.853148    0.263184   -0.082288
      7          1           0       -0.366887    2.849779    0.728346
      8          1           0        0.382907    1.348750    1.308958
      9          1           0       -1.341216    1.691667    1.652473
     10          1           0       -3.675707   -0.613640   -0.416507
     11          1           0       -3.148293   -0.384830    1.272295
     12          1           0       -3.241367   -2.016682    0.584575
     13          6           0       -0.534059    1.792838    0.932618
     14         16           0       -0.990704    1.040799   -0.660900
     15         16           0       -1.284674   -0.931900   -0.190034
     16          6           0       -3.016912   -0.972971    0.368366
 ---------------------------------------------------------------------

 SCF Done:  E(RHF) =  -1312.35133925     A.U. after    2 cycles

 The electronic state is 1-A.
 Alpha  occ. eigenvalues --  -93.97281 -93.97256 -93.93836 -11.27427 -11.26937
 Alpha  occ. eigenvalues --  -11.25908  -8.25289  -8.25262  -8.21935  -6.23111
 Alpha  occ. eigenvalues --   -6.23063  -6.22879  -6.22867  -6.22652  -6.22651
 Alpha  occ. eigenvalues --   -6.19798  -6.19655  -6.19428  -1.12353  -1.05262
 Alpha  occ. eigenvalues --   -1.02988  -0.92386  -0.87672  -0.81357  -0.62450
 Alpha  occ. eigenvalues --   -0.61741  -0.61039  -0.60240  -0.59068  -0.58936
 Alpha  occ. eigenvalues --   -0.54588  -0.52734  -0.50442  -0.46073  -0.45319
 Alpha  occ. eigenvalues --   -0.37134  -0.36156  -0.35589
 Alpha virt. eigenvalues --    0.03222   0.03720   0.04184   0.04817   0.05737
 Alpha virt. eigenvalues --    0.06118   0.06853   0.07504   0.07888   0.09207
 Alpha virt. eigenvalues --    0.09784   0.11498   0.12560   0.12922   0.13719

 Mulliken charges:
               1
     1  H    0.140569
     2  H    0.143204
     3  H    0.140667
     4  H    0.437565
     5  C   -0.637342
     6  S   -0.179521
     7  H    0.202766
     8  H    0.134437
     9  H    0.157582
    10  H    0.221125
    11  H    0.182021
    12  H    0.171976
    13  C   -0.579345
    14  S    0.039002
    15  S    0.234946
    16  C   -0.809653
 Sum of Mulliken charges =  -0.00000

 Dipole moment (field-independent basis, Debye):
    X=             -2.5453    Y=             -0.6419    Z=              1.8043  Tot=              3.1853

 Test job not archived.
 1\1\GINC-SE454\SP\RHF\Aug-CC-pVDZ\C3H10S3\OHZDE\09-Apr-2025\0\\#t hf a
 ug-cc-pvdz iop(5/13=1,5/36=2,99/5=2) pseudo=read geom=check guess=(rea
 d,tcheck) scf=(maxcycle=1)\\title\\0,1\H,0,1.01554051,-2.06430295,-0.2
 6345232\H,0,1.41221348,-3.50790796,0.68330627\H,0,2.28776701,-1.999782
 1,0.97838509\H,0,0.09227498,-0.7095981,1.83267489\C,0,1.324424,-2.4250
 3809,0.71277693\S,0,0.06941485,-2.04508424,1.97921636\H,0,-2.84762912,
 0.62085978,0.53013795\H,0,-1.79704067,-0.70633527,-0.00577927\H,0,-2.4
 2352274,0.48607273,-1.18640434\H,0,0.39281878,2.83914267,-2.44189341\H

 Normal termination of Gaussian 16 at Wed Apr  9 19:28:18 2025.
