 Gaussian 16, Revision C.01,

 ----------------------------------------------------------------------
 #t hf aug-cc-pvdz symm=none int=(grid=ultrafine) guess=(read,tcheck) s
 table=(opt,rrhf)
 ----------------------------------------------------------------------
 -----
 title
 -----
 Symbolic Z-matrix:
 Charge =  0 Multiplicity = 1

 SCF Done:  E(RHF) =  -974.715597848     A.U. after   13 cycles
 Normal termination of Gaussian 16 at Wed Apr  9 19:30:52 2025.
 Gaussian 16:  ES64L-G16RevC.01  3-Jul-2019

 ----------------------------------------------------------------------
 #t hf aug-cc-pvdz iop(5/13=1,5/36=2,99/5=2) pseudo=read geom=check gue
 ss=(read,tcheck) scf=(maxcycle=1)
 ----------------------------------------------------------------------
 -----
 title
 -----
 Structure from the checkpoint file:  "HB300SPXx10_1372_4.42_0.85_hydrogenchloride_thioacetone_dimer_mol1.chk"
 Charge =  0 Multiplicity = 1

                         Standard orientation:
 ---------------------------------------------------------------------
 Center     Atomic      Atomic             Coordinates (Angstroms)
 Number     Number       Type             X           Y           Z
 ---------------------------------------------------------------------
      1          1           0        1.481127    0.034882    0.000000
      2         17           0        2.454061   -0.854094    0.000000
      3          1           0       -0.113823   -1.624971    0.000000
      4          1           0       -1.657180   -1.703405    0.874054
      5          1           0       -1.657180   -1.703405   -0.874054
      6          1           0       -2.717696    1.797178    0.000000
      7          1           0       -3.214467    0.331387   -0.874659
      8          6           0       -1.145368   -1.292848    0.000000
      9          6           0       -1.276761    0.196996    0.000000
     10         16           0        0.000000    1.209514    0.000000
     11          6           0       -2.682098    0.713239    0.000000
     12          1           0       -3.214467    0.331387    0.874659
 ---------------------------------------------------------------------

 SCF Done:  E(RHF) =  -974.982612624     A.U. after    2 cycles

 The electronic state is 1-A'.
 Alpha  occ. eigenvalues -- -105.52612 -93.94875 -11.35784 -11.27068 -11.26510
 Alpha  occ. eigenvalues --  -10.57569  -8.23371  -7.74517  -7.74208  -7.74193
 Alpha  occ. eigenvalues --   -6.21164  -6.20954  -6.20803  -1.15915  -1.03192
 Alpha  occ. eigenvalues --   -0.99839  -0.98906  -0.75759  -0.65469  -0.64112
 Alpha  occ. eigenvalues --   -0.64084  -0.59565  -0.58218  -0.55982  -0.52189
 Alpha  occ. eigenvalues --   -0.44436  -0.44202  -0.41758  -0.36699
 Alpha virt. eigenvalues --    0.02580   0.02717   0.04019   0.05119   0.05593
 Alpha virt. eigenvalues --    0.07081   0.07135   0.07961   0.09407   0.11087
 Alpha virt. eigenvalues --    0.13156   0.13575   0.14063   0.15255   0.15896

 Mulliken charges:
               1
     1  H    0.473179
     2  Cl  -0.297368
     3  H    0.034782
     4  H    0.291389
     5  H    0.291389
     6  H    0.170208
     7  H    0.257536
     8  C   -0.442266
     9  C   -0.505228
    10  S   -0.029316
    11  C   -0.501842
    12  H    0.257536
 Sum of Mulliken charges =   0.00000

 Dipole moment (field-independent basis, Debye):
    X=             -5.5021    Y=             -0.3982    Z=             -0.0000  Tot=              5.5165

 Test job not archived.
 1\1\GINC-SE224\SP\RHF\Aug-CC-pVDZ\C3H7Cl1S1\OHZDE\09-Apr-2025\0\\#t hf
  aug-cc-pvdz iop(5/13=1,5/36=2,99/5=2) pseudo=read geom=check guess=(r
 ead,tcheck) scf=(maxcycle=1)\\title\\0,1\H,0,-0.37830043,1.49279945,0.
 \Cl,0,0.15229845,2.69917624,0.\H,0,1.70489561,0.51337587,0.\H,0,2.2734
 2947,-0.92359042,0.87405369\H,0,2.27342947,-0.92359042,-0.87405369\H,0
 ,-0.70320157,-3.04925319,0.\H,0,0.84448193,-3.050473,-0.87465894\C,0,1
 .72059457,-0.57020333,0.\C,0,0.35128302,-1.17177077,0.\S,0,-1.01677378
 ,-0.28648424,0.\C,0,0.31225787,-2.66841892,0.\H,0,0.84448193,-3.050473

 Normal termination of Gaussian 16 at Wed Apr  9 19:30:56 2025.
