 Gaussian 16, Revision C.01,

 ----------------------------------------------------------------------
 #t hf aug-cc-pvdz symm=none int=(grid=ultrafine) guess=(read,tcheck) s
 table=(opt,rrhf)
 ----------------------------------------------------------------------
 -----
 title
 -----
 Symbolic Z-matrix:
 Charge =  0 Multiplicity = 1

 SCF Done:  E(RHF) =  -1312.03409106     A.U. after   13 cycles

 1\1\GINC-SE036\Stability\RHF\Aug-CC-pVDZ\C3H10S3\OHZDE\09-Apr-2025\0\\
 #t hf aug-cc-pvdz symm=none int=(grid=ultrafine) guess=(read,tcheck) s
 table=(opt,rrhf)\\title\\0,1\H,0,1.01554051,-2.06430295,-0.26345232\H,
 0,1.41221348,-3.50790796,0.68330627\H,0,2.28776701,-1.9997821,0.978385
 09\H,0,0.09227498,-0.7095981,1.83267489\C,0,1.324424,-2.42503809,0.712
 77693\S,0,0.06941485,-2.04508424,1.97921636\H,0,-3.03261875,1.15228353
 ,0.11811751\H,0,-1.98203031,-0.17491152,-0.41779971\H,0,-2.60851238,1.
 01749648,-1.59842477\H,0,0.20782914,3.37056642,-2.85391385\H,0,-0.8068

 Normal termination of Gaussian 16 at Wed Apr  9 04:10:40 2025.
 Gaussian 16:  ES64L-G16RevC.01  3-Jul-2019

 ----------------------------------------------------------------------
 #t hf aug-cc-pvdz iop(5/13=1,5/36=2,99/5=2) pseudo=read geom=check gue
 ss=(read,tcheck) scf=(maxcycle=1)
 ----------------------------------------------------------------------
 -----
 title
 -----
 Structure from the checkpoint file:  "HB300SPXx10_1178_4.22_1.25_methanethiol_dimethyldisulfide_dimer_mol1.chk"
 Charge =  0 Multiplicity = 1

                         Standard orientation:
 ---------------------------------------------------------------------
 Center     Atomic      Atomic             Coordinates (Angstroms)
 Number     Number       Type             X           Y           Z
 ---------------------------------------------------------------------
      1          1           0        2.023699   -1.518689    0.823543
      2          1           0        3.778135   -1.749724    0.902746
      3          1           0        2.931208   -1.995756   -0.630320
      4          1           0        2.181087    0.577201   -0.808592
      5          6           0        2.956711   -1.404636    0.280365
      6         16           0        3.291289    0.349381   -0.086741
      7          1           0       -0.751530    2.859513    0.728315
      8          1           0        0.070063    1.399948    1.317421
      9          1           0       -1.671169    1.655870    1.650301
     10          1           0       -3.873879   -0.770208   -0.425075
     11          1           0       -3.368433   -0.510580    1.265987
     12          1           0       -3.374707   -2.146824    0.582448
     13          6           0       -0.866067    1.795985    0.934684
     14         16           0       -1.274854    1.017638   -0.659197
     15         16           0       -1.471122   -0.966208   -0.184317
     16          6           0       -3.202222   -1.093635    0.364501
 ---------------------------------------------------------------------

 SCF Done:  E(RHF) =  -1312.35347919     A.U. after    2 cycles

 The electronic state is 1-A.
 Alpha  occ. eigenvalues --  -93.97133 -93.97101 -93.94295 -11.27303 -11.27054
 Alpha  occ. eigenvalues --  -11.26288  -8.25149  -8.25101  -8.22380  -6.22967
 Alpha  occ. eigenvalues --   -6.22905  -6.22744  -6.22700  -6.22519  -6.22478
 Alpha  occ. eigenvalues --   -6.20242  -6.20096  -6.19865  -1.12169  -1.05542
 Alpha  occ. eigenvalues --   -1.02915  -0.92302  -0.87967  -0.81229  -0.62307
 Alpha  occ. eigenvalues --   -0.61346  -0.60993  -0.60684  -0.59336  -0.59033
 Alpha  occ. eigenvalues --   -0.54485  -0.53039  -0.50347  -0.46259  -0.45221
 Alpha  occ. eigenvalues --   -0.37004  -0.36019  -0.35896
 Alpha virt. eigenvalues --    0.03286   0.03732   0.04160   0.04797   0.05656
 Alpha virt. eigenvalues --    0.05976   0.06683   0.07349   0.07888   0.09122
 Alpha virt. eigenvalues --    0.09595   0.11233   0.12186   0.12585   0.13481

 Mulliken charges:
               1
     1  H    0.118384
     2  H    0.154463
     3  H    0.159452
     4  H    0.343900
     5  C   -0.670296
     6  S   -0.099238
     7  H    0.192852
     8  H    0.163662
     9  H    0.165570
    10  H    0.222951
    11  H    0.180715
    12  H    0.173418
    13  C   -0.642730
    14  S    0.118260
    15  S    0.207818
    16  C   -0.789180
 Sum of Mulliken charges =   0.00000

 Dipole moment (field-independent basis, Debye):
    X=             -2.3758    Y=             -0.7873    Z=              1.7949  Tot=              3.0799

 Test job not archived.
 1\1\GINC-SE036\SP\RHF\Aug-CC-pVDZ\C3H10S3\OHZDE\09-Apr-2025\0\\#t hf a
 ug-cc-pvdz iop(5/13=1,5/36=2,99/5=2) pseudo=read geom=check guess=(rea
 d,tcheck) scf=(maxcycle=1)\\title\\0,1\H,0,1.01554051,-2.06430295,-0.2
 6345232\H,0,1.41221348,-3.50790796,0.68330627\H,0,2.28776701,-1.999782
 1,0.97838509\H,0,0.09227498,-0.7095981,1.83267489\C,0,1.324424,-2.4250
 3809,0.71277693\S,0,0.06941485,-2.04508424,1.97921636\H,0,-3.03261875,
 1.15228353,0.11811751\H,0,-1.98203031,-0.17491152,-0.41779971\H,0,-2.6
 0851238,1.01749648,-1.59842477\H,0,0.20782914,3.37056642,-2.85391385\H

 Normal termination of Gaussian 16 at Wed Apr  9 04:10:47 2025.
