 Gaussian 16, Revision C.01,

 ----------------------------------------------------------------------
 #t hf aug-cc-pvdz symm=none int=(grid=ultrafine) guess=(read,tcheck) s
 table=(opt,rrhf)
 ----------------------------------------------------------------------
 -----
 title
 -----
 Symbolic Z-matrix:
 Charge =  0 Multiplicity = 1

 SCF Done:  E(RHF) =  -591.458775498     A.U. after   14 cycles
 Normal termination of Gaussian 16 at Wed Apr  9 19:22:59 2025.
 Gaussian 16:  ES64L-G16RevC.01  3-Jul-2019

 ----------------------------------------------------------------------
 #t hf aug-cc-pvdz iop(5/13=1,5/36=2,99/5=2) pseudo=read geom=check gue
 ss=(read,tcheck) scf=(maxcycle=1)
 ----------------------------------------------------------------------
 -----
 title
 -----
 Structure from the checkpoint file:  "HB300SPXx10_1014_4.05_0.95_ethyne_thioacetone_dimer_mol1.chk"
 Charge =  0 Multiplicity = 1

                         Standard orientation:
 ---------------------------------------------------------------------
 Center     Atomic      Atomic             Coordinates (Angstroms)
 Number     Number       Type             X           Y           Z
 ---------------------------------------------------------------------
      1          6           0        0.229913   -2.870002    0.000000
      2          1           0       -0.433401   -2.034058    0.000000
      3          6           0        0.991009   -3.793491    0.000000
      4          1           0        1.660319   -4.616941    0.000000
      5          1           0       -1.051881    3.180701    0.000000
      6          1           0        0.495715    3.184326    0.874719
      7          1           0        0.495715    3.184326   -0.874719
      8          1           0        1.354513   -0.379151    0.000000
      9          1           0        1.927559    1.055569   -0.874314
     10          6           0       -0.036002    2.801060    0.000000
     11          6           0        0.000000    1.302843    0.000000
     12         16           0       -1.357836    0.406234    0.000000
     13          6           0        1.373292    0.704576    0.000000
     14          1           0        1.927559    1.055569    0.874314
 ---------------------------------------------------------------------

 SCF Done:  E(RHF) =  -591.725674436     A.U. after    2 cycles

 The electronic state is 1-A'.
 Alpha  occ. eigenvalues --  -93.92870 -11.33758 -11.25672 -11.25452 -11.23933
 Alpha  occ. eigenvalues --  -11.23544  -8.21191  -6.19007  -6.18814  -6.18599
 Alpha  occ. eigenvalues --   -1.13919  -1.02486  -0.98099  -0.97609  -0.75894
 Alpha  occ. eigenvalues --   -0.73700  -0.68060  -0.62775  -0.62657  -0.62484
 Alpha  occ. eigenvalues --   -0.57017  -0.54454  -0.51155  -0.41040  -0.41009
 Alpha  occ. eigenvalues --   -0.39909  -0.35172
 Alpha virt. eigenvalues --    0.03044   0.03588   0.03602   0.04841   0.05848
 Alpha virt. eigenvalues --    0.06223   0.06676   0.07443   0.08773   0.09789
 Alpha virt. eigenvalues --    0.10427   0.11834   0.12782   0.13198   0.14050

 Mulliken charges:
               1
     1  C    0.487026
     2  H   -0.232724
     3  C    0.034690
     4  H   -0.253682
     5  H    0.176154
     6  H    0.253502
     7  H    0.253502
     8  H   -0.015717
     9  H    0.298170
    10  C   -0.495786
    11  C   -0.532428
    12  S    0.126986
    13  C   -0.397866
    14  H    0.298170
 Sum of Mulliken charges =  -0.00000

 Dipole moment (field-independent basis, Debye):
    X=              2.7404    Y=              2.3592    Z=             -0.0000  Tot=              3.6160

 Test job not archived.
 1\1\GINC-SE054\SP\RHF\Aug-CC-pVDZ\C5H8S1\OHZDE\09-Apr-2025\0\\#t hf au
 g-cc-pvdz iop(5/13=1,5/36=2,99/5=2) pseudo=read geom=check guess=(read
 ,tcheck) scf=(maxcycle=1)\\title\\0,1\C,0,-0.20751211,-2.93011645,0.\H
 ,0,-0.70775465,-1.98748922,0.\C,0,0.37296237,-3.97660953,0.\H,0,0.8813
 7254,-4.90804053,0.\H,0,-0.36764444,3.25279303,0.\H,0,1.15480866,2.974
 9339,0.87471889\H,0,1.15480866,2.9749339,-0.87471889\H,0,1.35128654,-0
 .6852973,0.\H,0,2.17567555,0.62129634,-0.87431367\C,0,0.56226185,2.694
 74868,0.\C,0,0.32521974,1.21496426,0.\S,0,-1.173021,0.58022014,0.\C,0,

 Normal termination of Gaussian 16 at Wed Apr  9 19:23:04 2025.
