 Gaussian 16, Revision C.01,

 ----------------------------------------------------------------------
 #t hf aug-cc-pvdz symm=none int=(grid=ultrafine) guess=(read,tcheck) s
 table=(opt,rrhf)
 ----------------------------------------------------------------------
 -----
 title
 -----
 Symbolic Z-matrix:
 Charge =  0 Multiplicity = 1

 SCF Done:  E(RHF) =  -609.888976483     A.U. after   13 cycles
 Normal termination of Gaussian 16 at Wed Apr  9 19:24:11 2025.
 Gaussian 16:  ES64L-G16RevC.01  3-Jul-2019

 ----------------------------------------------------------------------
 #t hf aug-cc-pvdz iop(5/13=1,5/36=2,99/5=2) pseudo=read geom=check gue
 ss=(read,tcheck) scf=(maxcycle=1)
 ----------------------------------------------------------------------
 -----
 title
 -----
 Structure from the checkpoint file:  "HB300SPXx10_1055_4.09_1.00_ammonia_tetrahydrothiophene_dimer_mol1.chk"
 Charge =  0 Multiplicity = 1

                         Standard orientation:
 ---------------------------------------------------------------------
 Center     Atomic      Atomic             Coordinates (Angstroms)
 Number     Number       Type             X           Y           Z
 ---------------------------------------------------------------------
      1          7           0       -2.815803    0.481705   -0.208917
      2          1           0       -2.189498   -0.309954   -0.089121
      3          1           0       -3.492284    0.446222    0.543341
      4          1           0       -3.327259    0.333849   -1.069910
      5          1           0        1.405355   -0.198501    1.937179
      6          1           0       -0.340154    0.040415    2.079230
      7          1           0        1.142979    2.076805    1.150800
      8          1           0       -0.260870    0.006134   -1.811047
      9          1           0       -0.379487    1.685273    0.342667
     10          1           0        1.284353   -0.843962   -1.959905
     11          1           0        1.335245    1.781792   -1.428814
     12          1           0        2.393761    0.722138   -0.499359
     13         16           0        0.216501   -1.326313    0.156442
     14          6           0        0.494385    0.019159    1.383227
     15          6           0        0.616630    1.312370    0.578596
     16          6           0        1.350241    0.958630   -0.714131
     17          6           0        0.651153   -0.272014   -1.286975
 ---------------------------------------------------------------------

 SCF Done:  E(RHF) =  -610.184767487     A.U. after    2 cycles

 The electronic state is 1-A.
 Alpha  occ. eigenvalues --  -93.93007 -15.47705 -11.25942 -11.25898 -11.23642
 Alpha  occ. eigenvalues --  -11.23127  -8.21133  -6.18936  -6.18818  -6.18596
 Alpha  occ. eigenvalues --   -1.13887  -1.13243  -0.98719  -0.98090  -0.79563
 Alpha  occ. eigenvalues --   -0.79389  -0.66931  -0.65757  -0.65164  -0.64571
 Alpha  occ. eigenvalues --   -0.60462  -0.55272  -0.51162  -0.49782  -0.48592
 Alpha  occ. eigenvalues --   -0.48411  -0.46007  -0.42906  -0.34102
 Alpha virt. eigenvalues --    0.03433   0.03802   0.03924   0.04586   0.05985
 Alpha virt. eigenvalues --    0.06275   0.06549   0.07690   0.07987   0.08795
 Alpha virt. eigenvalues --    0.09235   0.11414   0.13334   0.14604   0.14856

 Mulliken charges:
               1
     1  N   -0.066760
     2  H   -0.143511
     3  H    0.146344
     4  H    0.152155
     5  H    0.119608
     6  H    0.153798
     7  H    0.145412
     8  H    0.166508
     9  H    0.202962
    10  H    0.152194
    11  H    0.131318
    12  H    0.109604
    13  S    0.408560
    14  C   -0.548323
    15  C   -0.277980
    16  C   -0.343770
    17  C   -0.508119
 Sum of Mulliken charges =  -0.00000

 Dipole moment (field-independent basis, Debye):
    X=             -0.0318    Y=              0.8890    Z=             -0.1840  Tot=              0.9084

 Test job not archived.
 1\1\GINC-SE224\SP\RHF\Aug-CC-pVDZ\C4H11N1S1\OHZDE\09-Apr-2025\0\\#t hf
  aug-cc-pvdz iop(5/13=1,5/36=2,99/5=2) pseudo=read geom=check guess=(r
 ead,tcheck) scf=(maxcycle=1)\\title\\0,1\N,0,-1.82627315,2.2398073,0.1
 9813908\H,0,-1.3275361,1.71497926,-0.51540753\H,0,-2.80551666,2.240204
 76,-0.05849198\H,0,-1.50884454,3.19950412,0.14356214\H,0,-0.45172795,-
 2.31401052,-0.31171803\H,0,-1.75337897,-1.11838792,-0.32760349\H,0,-0.
 5560473,-1.65237906,2.01542851\H,0,1.11219774,1.42550944,0.34972588\H,
 0,-0.88751355,0.02945444,1.58432956\H,0,2.4212482,0.39916113,-0.254867

 Normal termination of Gaussian 16 at Wed Apr  9 19:24:17 2025.
