 Gaussian 16, Revision C.01,

 ----------------------------------------------------------------------
 #t hf aug-cc-pvdz symm=none int=(grid=ultrafine) guess=(read,tcheck) s
 table=(opt,rrhf)
 ----------------------------------------------------------------------
 -----
 title
 -----
 Symbolic Z-matrix:
 Charge =  0 Multiplicity = 1

 SCF Done:  E(RHF) =  -645.418447495     A.U. after   14 cycles
 Normal termination of Gaussian 16 at Wed Apr  9 04:10:47 2025.
 Gaussian 16:  ES64L-G16RevC.01  3-Jul-2019

 ----------------------------------------------------------------------
 #t hf aug-cc-pvdz iop(5/13=1,5/36=2,99/5=2) pseudo=read geom=check gue
 ss=(read,tcheck) scf=(maxcycle=1)
 ----------------------------------------------------------------------
 -----
 title
 -----
 Structure from the checkpoint file:  "HB300SPXx10_122_1.13_0.85_sulfane_pyridine_dimer_mol1.chk"
 Charge =  0 Multiplicity = 1

                         Standard orientation:
 ---------------------------------------------------------------------
 Center     Atomic      Atomic             Coordinates (Angstroms)
 Number     Number       Type             X           Y           Z
 ---------------------------------------------------------------------
      1          1           0        1.821584   -0.306285   -0.025929
      2          1           0        3.278477   -0.040417    1.252572
      3         16           0        3.139584    0.011496   -0.079969
      4          1           0       -2.951333   -1.819416   -0.002037
      5          1           0       -0.512484   -2.292321   -0.001679
      6          6           0       -2.656736    0.316589    0.000969
      7          6           0       -2.239505   -1.007155   -0.000340
      8          6           0       -0.876515   -1.272600    0.000024
      9          7           0        0.050368   -0.315327    0.001855
     10          6           0       -0.357207    0.953392    0.002908
     11          6           0       -1.696951    1.318796    0.002578
     12          1           0        0.424192    1.703446    0.003250
     13          1           0       -1.975571    2.362234    0.003148
     14          1           0       -3.709307    0.561981    0.000372
 ---------------------------------------------------------------------

 SCF Done:  E(RHF) =  -645.736366052     A.U. after    2 cycles

 The electronic state is 1-A.
 Alpha  occ. eigenvalues --  -93.91683 -15.52226 -11.29692 -11.29485 -11.28051
 Alpha  occ. eigenvalues --  -11.26194 -11.26147  -8.19918  -6.17800  -6.17676
 Alpha  occ. eigenvalues --   -6.17460  -1.28129  -1.10966  -1.05638  -0.98204
 Alpha  occ. eigenvalues --   -0.89534  -0.88543  -0.75792  -0.70722  -0.67611
 Alpha  occ. eigenvalues --   -0.63212  -0.62764  -0.58277  -0.55766  -0.55159
 Alpha  occ. eigenvalues --   -0.49542  -0.43361  -0.42196  -0.37311  -0.35642
 Alpha virt. eigenvalues --    0.02727   0.03424   0.03830   0.05445   0.05547
 Alpha virt. eigenvalues --    0.06362   0.07377   0.08854   0.08855   0.10140
 Alpha virt. eigenvalues --    0.10709   0.12263   0.12301   0.13195   0.13531

 Mulliken charges:
               1
     1  H    0.531139
     2  H    0.224619
     3  S   -0.654838
     4  H   -0.190227
     5  H   -0.226565
     6  C    0.114517
     7  C    0.674108
     8  C   -0.653333
     9  N    0.849269
    10  C   -0.721649
    11  C    0.723818
    12  H   -0.310971
    13  H   -0.191158
    14  H   -0.168728
 Sum of Mulliken charges =  -0.00000

 Dipole moment (field-independent basis, Debye):
    X=             -5.1003    Y=              0.2569    Z=              0.8267  Tot=              5.1732

 Test job not archived.
 1\1\GINC-SE424\SP\RHF\Aug-CC-pVDZ\C5H7N1S1\OHZDE\09-Apr-2025\0\\#t hf
 aug-cc-pvdz iop(5/13=1,5/36=2,99/5=2) pseudo=read geom=check guess=(re
 ad,tcheck) scf=(maxcycle=1)\\title\\0,1\H,0,1.25021154,1.5960457,0.136
 91261\H,0,3.15091491,1.84193998,0.53016902\S,0,2.02337536,2.53859467,0
 .73260516\H,0,-1.67361023,-1.62115216,-2.34739386\H,0,-0.13522788,0.32
 849842,-2.2852108\C,0,-1.54632918,-1.93907232,-0.21853489\C,0,-1.24972
 916,-1.29209571,-1.4101013\C,0,-0.38981931,-0.20231181,-1.37648874\N,0
 ,0.16461254,0.25163793,-0.25309189\C,0,-0.12462223,-0.37409328,0.88733

 Normal termination of Gaussian 16 at Wed Apr  9 04:10:51 2025.
