 Gaussian 16, Revision C.01,

 ----------------------------------------------------------------------
 #t hf aug-cc-pvdz symm=none int=(grid=ultrafine) guess=(read,tcheck) s
 table=(opt,rrhf)
 ----------------------------------------------------------------------
 -----
 title
 -----
 Symbolic Z-matrix:
 Charge =  0 Multiplicity = 1

 SCF Done:  E(RHF) =  -1037.69944425     A.U. after   14 cycles
 Normal termination of Gaussian 16 at Wed Apr  9 19:34:49 2025.
 Gaussian 16:  ES64L-G16RevC.01  3-Jul-2019

 ----------------------------------------------------------------------
 #t hf aug-cc-pvdz iop(5/13=1,5/36=2,99/5=2) pseudo=read geom=check gue
 ss=(read,tcheck) scf=(maxcycle=1)
 ----------------------------------------------------------------------
 -----
 title
 -----
 Structure from the checkpoint file:  "HB300SPXx10_1475_5.10_1.00_phosphaalkene_phosphineF2_dimer_mol1.chk"
 Charge =  0 Multiplicity = 1

                         Standard orientation:
 ---------------------------------------------------------------------
 Center     Atomic      Atomic             Coordinates (Angstroms)
 Number     Number       Type             X           Y           Z
 ---------------------------------------------------------------------
      1          1           0       -1.672538   -2.932228   -0.589193
      2          1           0       -0.683400   -2.180989    0.664182
      3          1           0       -2.451452   -2.087247    0.747940
      4          1           0       -1.459713    2.149426   -1.515847
      5          1           0       -0.532883    1.203359    1.996345
      6          1           0       -2.280882    2.702372   -0.051502
      7          1           0       -0.525337    2.657892   -0.101825
      8          1           0       -1.360819   -0.354783    2.001642
      9          1           0       -2.282368    1.151905    2.043425
     10         15           0       -1.562372   -0.538900   -0.966796
     11          6           0       -1.448469    0.735288    0.124714
     12          6           0       -1.426489    2.133891   -0.427946
     13          6           0       -1.402642    0.659611    1.619514
     14          6           0       -1.593811   -2.074743    0.076634
     15         15           0        1.764738    0.264790   -0.215411
     16          9           0        3.366573    0.189758   -0.240573
     17          9           0        1.508232   -0.897699    0.857148
     18          1           0        1.569124   -0.550866   -1.368727
 ---------------------------------------------------------------------

 SCF Done:  E(RHF) =  -1038.13948436     A.U. after    2 cycles

 The electronic state is 1-A.
 Alpha  occ. eigenvalues --  -84.40741 -84.25656 -26.48198 -26.47554 -11.27718
 Alpha  occ. eigenvalues --  -11.24426 -11.24156 -11.23358  -6.86387  -6.72998
 Alpha  occ. eigenvalues --   -4.39248  -4.38623  -4.37655  -4.25937  -4.25021
 Alpha  occ. eigenvalues --   -4.24577  -1.62142  -1.57555  -1.09289  -0.98124
 Alpha  occ. eigenvalues --   -0.95692  -0.88184  -0.84939  -0.70943  -0.70808
 Alpha  occ. eigenvalues --   -0.69242  -0.69024  -0.64713  -0.62302  -0.61466
 Alpha  occ. eigenvalues --   -0.60929  -0.59981  -0.57592  -0.57274  -0.55722
 Alpha  occ. eigenvalues --   -0.55587  -0.52566  -0.46960  -0.38428  -0.35240
 Alpha  occ. eigenvalues --   -0.31783
 Alpha virt. eigenvalues --    0.03516   0.03878   0.04308   0.04421   0.05845
 Alpha virt. eigenvalues --    0.06211   0.06516   0.06956   0.07864   0.08349
 Alpha virt. eigenvalues --    0.09371   0.10004   0.10581   0.11332   0.11918

 Mulliken charges:
               1
     1  H   -0.036840
     2  H    0.083660
     3  H    0.113963
     4  H    0.133918
     5  H    0.209174
     6  H    0.224047
     7  H    0.237439
     8  H    0.084383
     9  H    0.212942
    10  P    1.067598
    11  C   -0.362959
    12  C   -0.479708
    13  C   -0.530563
    14  C   -0.851047
    15  P    1.505811
    16  F   -0.786224
    17  F   -0.870205
    18  H    0.044611
 Sum of Mulliken charges =  -0.00000

 Dipole moment (field-independent basis, Debye):
    X=             -1.5827    Y=              0.3755    Z=              0.2334  Tot=              1.6433

 Test job not archived.
 1\1\GINC-SE048\SP\RHF\Aug-CC-pVDZ\C4H10F2P2\OHZDE\09-Apr-2025\0\\#t hf
  aug-cc-pvdz iop(5/13=1,5/36=2,99/5=2) pseudo=read geom=check guess=(r
 ead,tcheck) scf=(maxcycle=1)\\title\\0,1\H,0,-0.66372889,3.26375392,-1
 .41484082\H,0,0.57607353,2.07688321,-1.82463407\H,0,-0.55842324,2.6448
 712,-3.06242126\H,0,-2.87100416,-1.40911587,-1.55416728\H,0,0.42715494
 ,-1.23076192,-3.33739031\H,0,-2.60862974,-1.75549695,-3.26751243\H,0,-
 1.47646146,-2.36750684,-2.07165071\H,0,0.4157342,0.51539066,-3.5906339
 2\H,0,-0.67072928,-0.53226666,-4.50884988\P,0,-1.6570918,1.05342876,-1

 Normal termination of Gaussian 16 at Wed Apr  9 19:34:57 2025.
