 Gaussian 16, Revision C.01,

 ----------------------------------------------------------------------
 #t hf aug-cc-pvdz symm=none int=(grid=ultrafine) guess=(read,tcheck) s
 table=(opt,rrhf)
 ----------------------------------------------------------------------
 -----
 title
 -----
 Symbolic Z-matrix:
 Charge =  0 Multiplicity = 1

 SCF Done:  E(RHF) =  -704.615202611     A.U. after   13 cycles
 Normal termination of Gaussian 16 at Wed Apr  9 19:26:19 2025.
 Gaussian 16:  ES64L-G16RevC.01  3-Jul-2019

 ----------------------------------------------------------------------
 #t hf aug-cc-pvdz iop(5/13=1,5/36=2,99/5=2) pseudo=read geom=check gue
 ss=(read,tcheck) scf=(maxcycle=1)
 ----------------------------------------------------------------------
 -----
 title
 -----
 Structure from the checkpoint file:  "HB300SPXx10_1123_4.16_0.90_aceticacid_dimethylsulfide_dimer_mol1.chk"
 Charge =  0 Multiplicity = 1

                         Standard orientation:
 ---------------------------------------------------------------------
 Center     Atomic      Atomic             Coordinates (Angstroms)
 Number     Number       Type             X           Y           Z
 ---------------------------------------------------------------------
      1          6           0        0.273813    1.729349    0.000000
      2          8           0       -0.872404    1.343184    0.000000
      3          8           0        1.328864    0.906834   -0.000000
      4          1           0        1.014360   -0.031411   -0.000000
      5          6           0        0.687238    3.175350    0.000000
      6          1           0       -0.191904    3.809990    0.000000
      7          1           0        1.299066    3.383314    0.876781
      8          1           0        1.299066    3.383314   -0.876781
      9          1           0       -1.680906   -2.296868    1.379195
     10          1           0       -1.268531   -0.559007    1.315483
     11          1           0       -0.298658   -1.679836    2.299403
     12          1           0       -0.298658   -1.679836   -2.299403
     13          1           0       -1.268531   -0.559007   -1.315483
     14          1           0       -1.680906   -2.296868   -1.379195
     15          6           0       -0.872404   -1.569153    1.382643
     16         16           0        0.257903   -1.879518   -0.000000
     17          6           0       -0.872404   -1.569153   -1.382643
 ---------------------------------------------------------------------

 SCF Done:  E(RHF) =  -704.997162423     A.U. after    2 cycles

 The electronic state is 1-A'.
 Alpha  occ. eigenvalues --  -93.95045 -20.57129 -20.52641 -11.38654 -11.26053
 Alpha  occ. eigenvalues --  -11.26026 -11.24613  -8.23253  -6.21069  -6.20917
 Alpha  occ. eigenvalues --   -6.20741  -1.53149  -1.43885  -1.09504  -1.02269
 Alpha  occ. eigenvalues --   -0.96087  -0.83985  -0.81039  -0.70239  -0.67648
 Alpha  occ. eigenvalues --   -0.64183  -0.62025  -0.61276  -0.58851  -0.57561
 Alpha  occ. eigenvalues --   -0.57393  -0.55777  -0.54867  -0.50911  -0.46122
 Alpha  occ. eigenvalues --   -0.45312  -0.43454  -0.36139
 Alpha virt. eigenvalues --    0.03766   0.03891   0.04010   0.04864   0.06012
 Alpha virt. eigenvalues --    0.06129   0.07077   0.07401   0.08040   0.08936
 Alpha virt. eigenvalues --    0.10983   0.11378   0.13154   0.14397   0.14771

 Mulliken charges:
               1
     1  C    1.826226
     2  O   -1.226157
     3  O   -1.475482
     4  H    0.939449
     5  C   -0.506793
     6  H    0.181256
     7  H    0.230493
     8  H    0.230493
     9  H    0.146415
    10  H    0.161831
    11  H    0.153702
    12  H    0.153702
    13  H    0.161831
    14  H    0.146415
    15  C   -0.529398
    16  S   -0.064586
    17  C   -0.529398
 Sum of Mulliken charges =   0.00000

 Dipole moment (field-independent basis, Debye):
    X=             -0.3468    Y=              0.2819    Z=             -0.0000  Tot=              0.4469

 Test job not archived.
 1\1\GINC-SE222\SP\RHF\Aug-CC-pVDZ\C4H10O2S1\OHZDE\09-Apr-2025\0\\#t hf
  aug-cc-pvdz iop(5/13=1,5/36=2,99/5=2) pseudo=read geom=check guess=(r
 ead,tcheck) scf=(maxcycle=1)\\title\\0,1\C,0,0.08152563,1.86646531,0.\
 O,0,1.12794826,1.25988757,0.\O,0,-1.11612638,1.27040068,0.\H,0,-0.9946
 6015,0.28833063,0.\C,0,-0.03582077,3.36582142,0.\H,0,0.95204799,3.8127
 8193,0.\H,0,-0.5940149,3.69140047,-0.87678098\H,0,-0.5940149,3.6914004
 7,0.87678098\H,0,1.19577105,-2.4682562,-1.37919498\H,0,1.13754449,-0.6
 830882,-1.31548339\H,0,-0.03600946,-1.58845155,-2.29940307\H,0,-0.0360

 Normal termination of Gaussian 16 at Wed Apr  9 19:26:24 2025.
