 Gaussian 16, Revision C.01,

 ----------------------------------------------------------------------
 #t hf aug-cc-pvdz symm=none int=(grid=ultrafine) guess=(read,tcheck) s
 table=(opt,rrhf)
 ----------------------------------------------------------------------
 -----
 title
 -----
 Symbolic Z-matrix:
 Charge =  0 Multiplicity = 1

 SCF Done:  E(RHF) =  -398.677760169     A.U. after   11 cycles
 Normal termination of Gaussian 16 at Wed Apr  9 19:24:39 2025.
 Gaussian 16:  ES64L-G16RevC.01  3-Jul-2019

 ----------------------------------------------------------------------
 #t hf aug-cc-pvdz iop(5/13=1,5/36=2,99/5=2) pseudo=read geom=check gue
 ss=(read,tcheck) scf=(maxcycle=1)
 ----------------------------------------------------------------------
 -----
 title
 -----
 Structure from the checkpoint file:  "HB300SPXx10_10_1.01_2.00_phosphine_ammonia_dimer_mol1.chk"
 Charge =  0 Multiplicity = 1

                         Standard orientation:
 ---------------------------------------------------------------------
 Center     Atomic      Atomic             Coordinates (Angstroms)
 Number     Number       Type             X           Y           Z
 ---------------------------------------------------------------------
      1         15           0        2.478244   -0.000015   -0.116804
      2          1           0        1.069003    0.001677    0.035958
      3          1           0        2.681335   -1.032531    0.833675
      4          1           0        2.683601    1.032546    0.833118
      5          7           0       -4.249140    0.000890   -0.000184
      6          1           0       -4.652204   -0.522400   -0.767134
      7          1           0       -4.578551   -0.421924    0.858404
      8          1           0       -4.632870    0.936624   -0.040669
 ---------------------------------------------------------------------

 SCF Done:  E(RHF) =  -398.788612345     A.U. after    2 cycles

 The electronic state is 1-A.
 Alpha  occ. eigenvalues --  -84.27144 -15.48761  -6.74291  -4.26505  -4.26493
 Alpha  occ. eigenvalues --   -4.25858  -1.14543  -0.86515  -0.66662  -0.66654
 Alpha  occ. eigenvalues --   -0.50260  -0.50184  -0.47058  -0.35877
 Alpha virt. eigenvalues --    0.02931   0.04397   0.06162   0.06251   0.07462
 Alpha virt. eigenvalues --    0.08976   0.10287   0.10366   0.11130   0.17008
 Alpha virt. eigenvalues --    0.18014   0.20465   0.20481   0.20979   0.22005

 Mulliken charges:
               1
     1  P   -1.021712
     2  H    0.334661
     3  H    0.343640
     4  H    0.343676
     5  N   -0.097726
     6  H    0.032800
     7  H    0.032226
     8  H    0.032434
 Sum of Mulliken charges =   0.00000

 Dipole moment (field-independent basis, Debye):
    X=             -1.9051    Y=             -0.0150    Z=              0.4144  Tot=              1.9497

 Test job not archived.
 1\1\GINC-SE220\SP\RHF\Aug-CC-pVDZ\H6N1P1\OHZDE\09-Apr-2025\0\\#t hf au
 g-cc-pvdz iop(5/13=1,5/36=2,99/5=2) pseudo=read geom=check guess=(read
 ,tcheck) scf=(maxcycle=1)\\title\\0,1\P,0,1.20126953,-0.204174,-0.6935
 9914\H,0,0.00711135,-0.04100571,0.05249812\H,0,1.148472,-1.62079109,-0
 .65962828\H,0,2.04295792,-0.12244727,0.44463924\N,0,-4.64187771,0.9753
 0349,2.42693842\H,0,-5.39430556,1.17882709,1.78123309\H,0,-4.916684,0.
 16136348,2.96213911\H,0,-4.58144649,1.75272222,3.07227113\\Version=ES6
 4L-G16RevC.01\State=1-A\HF=-398.7886123\RMSD=2.623e-02\Dipole=-0.61945

 Normal termination of Gaussian 16 at Wed Apr  9 19:24:40 2025.
