 Gaussian 16, Revision C.01,

 ----------------------------------------------------------------------
 #t hf aug-cc-pvdz symm=none int=(grid=ultrafine) guess=(read,tcheck) s
 table=(opt,rrhf)
 ----------------------------------------------------------------------
 -----
 title
 -----
 Symbolic Z-matrix:
 Charge =  0 Multiplicity = 1

 SCF Done:  E(RHF) =  -1091.84396282     A.U. after   14 cycles
 Normal termination of Gaussian 16 at Wed Apr  9 19:32:19 2025.
 Gaussian 16:  ES64L-G16RevC.01  3-Jul-2019

 ----------------------------------------------------------------------
 #t hf aug-cc-pvdz iop(5/13=1,5/36=2,99/5=2) pseudo=read geom=check gue
 ss=(read,tcheck) scf=(maxcycle=1)
 ----------------------------------------------------------------------
 -----
 title
 -----
 Structure from the checkpoint file:  "HB300SPXx10_1402_5.03_0.85_dimethylsulfoxide_phosphineF2_dimer_mol1.chk"
 Charge =  0 Multiplicity = 1

                         Standard orientation:
 ---------------------------------------------------------------------
 Center     Atomic      Atomic             Coordinates (Angstroms)
 Number     Number       Type             X           Y           Z
 ---------------------------------------------------------------------
      1          1           0        1.848958    1.678984   -1.473471
      2          1           0        2.686083    1.787468    0.093757
      3          1           0        0.889877    1.801052    0.026627
      4          1           0        1.509678   -1.595817    1.680033
      5          1           0        0.754897    0.017250    1.795501
      6          6           0        1.801930    1.415276   -0.420337
      7         16           0        1.787578   -0.394135   -0.337901
      8          8           0        0.488940   -0.842851   -0.930996
      9          6           0        1.626784   -0.538028    1.460915
     10          1           0        2.536063   -0.161616    1.925520
     11         15           0       -1.624340   -0.360032   -0.096571
     12          9           0       -3.168045    0.072303    0.100891
     13          9           0       -0.985356    0.997562    0.507138
     14          1           0       -1.564900    0.029846   -1.460747
 ---------------------------------------------------------------------

 SCF Done:  E(RHF) =  -1092.29431497     A.U. after    2 cycles

 The electronic state is 1-A.
 Alpha  occ. eigenvalues --  -94.08713 -84.37437 -26.46201 -26.43501 -20.52240
 Alpha  occ. eigenvalues --  -11.28492 -11.28157  -8.35663  -6.82988  -6.33531
 Alpha  occ. eigenvalues --   -6.33365  -6.33153  -4.35754  -4.35239  -4.34139
 Alpha  occ. eigenvalues --   -1.59526  -1.54299  -1.46878  -1.10734  -0.99668
 Alpha  occ. eigenvalues --   -0.87112  -0.84455  -0.69859  -0.68558  -0.67678
 Alpha  occ. eigenvalues --   -0.65522  -0.64975  -0.64418  -0.62135  -0.60671
 Alpha  occ. eigenvalues --   -0.60118  -0.58418  -0.56858  -0.54422  -0.52783
 Alpha  occ. eigenvalues --   -0.45344  -0.39680  -0.33657
 Alpha virt. eigenvalues --    0.02703   0.03684   0.04706   0.05231   0.06574
 Alpha virt. eigenvalues --    0.07017   0.07716   0.08527   0.09670   0.11170
 Alpha virt. eigenvalues --    0.12318   0.12607   0.13363   0.14702   0.15056

 Mulliken charges:
               1
     1  H    0.188871
     2  H    0.188705
     3  H    0.210148
     4  H    0.207093
     5  H    0.202144
     6  C   -0.594024
     7  S    1.603863
     8  O   -1.429166
     9  C   -0.608606
    10  H    0.186208
    11  P    1.502873
    12  F   -0.785758
    13  F   -0.907784
    14  H    0.035434
 Sum of Mulliken charges =  -0.00000

 Dipole moment (field-independent basis, Debye):
    X=              5.0054    Y=              1.3193    Z=              1.3424  Tot=              5.3476

 Test job not archived.
 1\1\GINC-SE104\SP\RHF\Aug-CC-pVDZ\C2H7F2O1P1S1\OHZDE\09-Apr-2025\0\\#t
  hf aug-cc-pvdz iop(5/13=1,5/36=2,99/5=2) pseudo=read geom=check guess
 =(read,tcheck) scf=(maxcycle=1)\\title\\0,1\H,0,1.67395499,0.82417178,
 -3.38423362\H,0,0.49124302,-0.02078366,-4.41184902\H,0,0.89589517,-0.6
 6534236,-2.78340018\H,0,-2.718683,0.46280377,-2.2188292\H,0,-1.5421980
 9,-0.87905323,-2.20106353\C,0,0.76564588,0.22768029,-3.38836814\S,0,-0
 .5351395,1.25679703,-2.66046249\O,0,-0.17783951,1.44910918,-1.22000404
 \C,0,-1.85989706,0.022286,-2.71790313\H,0,-2.10168806,-0.18449539,-3.7

 Normal termination of Gaussian 16 at Wed Apr  9 19:32:25 2025.
