 Gaussian 16, Revision C.01,

 ----------------------------------------------------------------------
 #t hf aug-cc-pvdz symm=none int=(grid=ultrafine) guess=(read,tcheck) s
 table=(opt,rrhf)
 ----------------------------------------------------------------------
 -----
 title
 -----
 Symbolic Z-matrix:
 Charge =  0 Multiplicity = 1

 SCF Done:  E(RHF) =  -571.981439142     A.U. after   12 cycles
 Normal termination of Gaussian 16 at Wed Apr  9 19:23:59 2025.
 Gaussian 16:  ES64L-G16RevC.01  3-Jul-2019

 ----------------------------------------------------------------------
 #t hf aug-cc-pvdz iop(5/13=1,5/36=2,99/5=2) pseudo=read geom=check gue
 ss=(read,tcheck) scf=(maxcycle=1)
 ----------------------------------------------------------------------
 -----
 title
 -----
 Structure from the checkpoint file:  "HB300SPXx10_1071_4.11_0.80_methylamine_dimethylsulfide_dimer_mol1.chk"
 Charge =  0 Multiplicity = 1

                         Standard orientation:
 ---------------------------------------------------------------------
 Center     Atomic      Atomic             Coordinates (Angstroms)
 Number     Number       Type             X           Y           Z
 ---------------------------------------------------------------------
      1          7           0       -1.514162   -0.804985    0.148110
      2          1           0       -1.831775   -1.755392    0.013478
      3          1           0       -0.752932   -0.645748   -0.502711
      4          6           0       -2.600454    0.142906   -0.096344
      5          1           0       -2.232179    1.157014    0.056686
      6          1           0       -3.036841    0.095918   -1.100851
      7          1           0       -3.399537   -0.023516    0.625524
      8          1           0        1.271215    1.687920    1.294038
      9          1           0       -0.328445    0.914833    1.130351
     10          1           0        0.132593    2.259067    0.064160
     11          1           0        2.011105   -1.928394   -0.171987
     12          1           0        0.739509   -1.490928    0.988611
     13          1           0        2.383188   -0.821689    1.159116
     14          6           0        0.495324    1.382032    0.594706
     15         16           0        1.161345    0.238867   -0.643580
     16          6           0        1.615416   -1.130949    0.452322
 ---------------------------------------------------------------------

 SCF Done:  E(RHF) =  -572.242599829     A.U. after    2 cycles

 The electronic state is 1-A.
 Alpha  occ. eigenvalues --  -93.93815 -15.46466 -11.25634 -11.25326 -11.24560
 Alpha  occ. eigenvalues --   -8.21979  -6.19795  -6.19642  -6.19449  -1.16501
 Alpha  occ. eigenvalues --   -1.08346  -0.95611  -0.90111  -0.82590  -0.69869
 Alpha  occ. eigenvalues --   -0.62632  -0.61026  -0.60698  -0.58247  -0.56829
 Alpha  occ. eigenvalues --   -0.56302  -0.52783  -0.50154  -0.44287  -0.41994
 Alpha  occ. eigenvalues --   -0.34427
 Alpha virt. eigenvalues --    0.03787   0.04080   0.04256   0.04938   0.06011
 Alpha virt. eigenvalues --    0.06043   0.06689   0.07509   0.08559   0.09273
 Alpha virt. eigenvalues --    0.10260   0.11881   0.13534   0.14248   0.15001

 Mulliken charges:
               1
     1  N    0.073712
     2  H    0.223995
     3  H    0.067339
     4  C   -0.407463
     5  H    0.015246
     6  H    0.085879
     7  H    0.085879
     8  H    0.059706
     9  H    0.257037
    10  H    0.186159
    11  H    0.144481
    12  H    0.128693
    13  H    0.159694
    14  C   -0.531638
    15  S    0.037404
    16  C   -0.586122
 Sum of Mulliken charges =  -0.00000

 Dipole moment (field-independent basis, Debye):
    X=             -0.4084    Y=             -0.3507    Z=              0.6212  Tot=              0.8220

 Test job not archived.
 1\1\GINC-SE118\SP\RHF\Aug-CC-pVDZ\C3H11N1S1\OHZDE\09-Apr-2025\0\\#t hf
  aug-cc-pvdz iop(5/13=1,5/36=2,99/5=2) pseudo=read geom=check guess=(r
 ead,tcheck) scf=(maxcycle=1)\\title\\0,1\N,0,-1.19251098,0.46771599,1.
 69699571\H,0,-2.17204653,0.34511648,1.91553075\H,0,-1.12099987,0.60068
 208,0.69419832\C,0,-0.64549649,1.62445241,2.40482331\H,0,0.40921091,1.
 73255139,2.15309408\H,0,-1.13947726,2.57752576,2.18276464\H,0,-0.70604
 436,1.45678733,3.47978713\H,0,2.07019642,-0.84517625,-0.0109584\H,0,0.
 97265974,-0.18192487,1.22955814\H,0,1.91060424,0.90731138,0.18547649\H

 Normal termination of Gaussian 16 at Wed Apr  9 19:24:04 2025.
