 Gaussian 16, Revision C.01,

 ----------------------------------------------------------------------
 #t hf aug-cc-pvdz symm=none int=(grid=ultrafine) guess=(read,tcheck) s
 table=(opt,rrhf)
 ----------------------------------------------------------------------
 -----
 title
 -----
 Symbolic Z-matrix:
 Charge =  0 Multiplicity = 1

 SCF Done:  E(RHF) =  -742.482616792     A.U. after   14 cycles
 Normal termination of Gaussian 16 at Wed Apr  9 19:27:27 2025.
 Gaussian 16:  ES64L-G16RevC.01  3-Jul-2019

 ----------------------------------------------------------------------
 #t hf aug-cc-pvdz iop(5/13=1,5/36=2,99/5=2) pseudo=read geom=check gue
 ss=(read,tcheck) scf=(maxcycle=1)
 ----------------------------------------------------------------------
 -----
 title
 -----
 Structure from the checkpoint file:  "HB300SPXx10_1139_4.17_1.50_aceticacid_thioacetone_dimer_mol1.chk"
 Charge =  0 Multiplicity = 1

                         Standard orientation:
 ---------------------------------------------------------------------
 Center     Atomic      Atomic             Coordinates (Angstroms)
 Number     Number       Type             X           Y           Z
 ---------------------------------------------------------------------
      1          6           0        2.716617   -1.523272    0.000000
      2          8           0        2.804723   -0.318267    0.000000
      3          8           0        1.549829   -2.179302    0.000000
      4          1           0        0.803250   -1.537931    0.000000
      5          6           0        3.888471   -2.466303    0.000000
      6          1           0        4.814628   -1.902482    0.000000
      7          1           0        3.842514   -3.110637    0.876954
      8          1           0        3.842514   -3.110637   -0.876954
      9          1           0       -4.293931    1.912185    0.000000
     10          1           0       -3.345962    3.136296    0.874412
     11          1           0       -3.345962    3.136296   -0.874412
     12          1           0       -0.000000    1.629738    0.000000
     13          1           0       -0.792303    2.961809   -0.872921
     14          6           0       -3.370634    2.481273    0.000000
     15          6           0       -2.162555    1.596061    0.000000
     16         16           0       -2.306948   -0.028434    0.000000
     17          6           0       -0.848180    2.305417    0.000000
     18          1           0       -0.792303    2.961809    0.872921
 ---------------------------------------------------------------------

 SCF Done:  E(RHF) =  -742.897431970     A.U. after    2 cycles

 The electronic state is 1-A'.
 Alpha  occ. eigenvalues --  -93.92701 -20.59556 -20.53102 -11.39131 -11.33510
 Alpha  occ. eigenvalues --  -11.25473 -11.25239 -11.25024  -8.20970  -6.18787
 Alpha  occ. eigenvalues --   -6.18599  -6.18377  -1.54224  -1.44517  -1.13649
 Alpha  occ. eigenvalues --   -1.02736  -0.97729  -0.97410  -0.82496  -0.73533
 Alpha  occ. eigenvalues --   -0.70299  -0.68035  -0.64779  -0.62577  -0.62433
 Alpha  occ. eigenvalues --   -0.62247  -0.57823  -0.56797  -0.56768  -0.55763
 Alpha  occ. eigenvalues --   -0.54345  -0.50780  -0.46867  -0.44009  -0.39555
 Alpha  occ. eigenvalues --   -0.34749
 Alpha virt. eigenvalues --    0.03236   0.03732   0.03933   0.04725   0.05712
 Alpha virt. eigenvalues --    0.05802   0.06231   0.06467   0.07414   0.07737
 Alpha virt. eigenvalues --    0.08887   0.09619   0.11409   0.12086   0.12623

 Mulliken charges:
               1
     1  C    1.875184
     2  O   -1.182450
     3  O   -1.247562
     4  H    0.466362
     5  C   -0.537208
     6  H    0.179439
     7  H    0.222962
     8  H    0.222962
     9  H    0.169968
    10  H    0.252664
    11  H    0.252664
    12  H    0.074069
    13  H    0.271208
    14  C   -0.471118
    15  C   -0.496694
    16  S    0.127797
    17  C   -0.451455
    18  H    0.271208
 Sum of Mulliken charges =  -0.00000

 Dipole moment (field-independent basis, Debye):
    X=             -0.2283    Y=              1.7114    Z=              0.0000  Tot=              1.7266

 Test job not archived.
 1\1\GINC-SE159\SP\RHF\Aug-CC-pVDZ\C5H10O2S1\OHZDE\09-Apr-2025\0\\#t hf
  aug-cc-pvdz iop(5/13=1,5/36=2,99/5=2) pseudo=read geom=check guess=(r
 ead,tcheck) scf=(maxcycle=1)\\title\\0,1\C,0,0.15920132,2.45664609,0.\
 O,0,1.21885316,1.87618237,0.\O,0,-1.02533188,1.83322707,0.\H,0,-0.8922
 641,0.85801947,0.\C,0,0.00380934,3.95277518,0.\H,0,0.98023034,4.424223
 4,0.\H,0,-0.56217465,4.2641268,-0.87695442\H,0,-0.56217465,4.2641268,0
 .87695442\H,0,-0.76362275,-5.29567931,0.\H,0,0.77906737,-5.16452249,-0
 .87441231\H,0,0.77906737,-5.16452249,0.87441231\H,0,1.33126862,-1.5368

 Normal termination of Gaussian 16 at Wed Apr  9 19:27:33 2025.
