 Gaussian 16, Revision C.01,

 ----------------------------------------------------------------------
 #t hf aug-cc-pvdz symm=none int=(grid=ultrafine) guess=(read,tcheck) s
 table=(opt,rrhf)
 ----------------------------------------------------------------------
 -----
 title
 -----
 Symbolic Z-matrix:
 Charge =  0 Multiplicity = 1

 SCF Done:  E(RHF) =  -936.854755824     A.U. after   12 cycles
 Normal termination of Gaussian 16 at Wed Apr  9 19:29:49 2025.
 Gaussian 16:  ES64L-G16RevC.01  3-Jul-2019

 ----------------------------------------------------------------------
 #t hf aug-cc-pvdz iop(5/13=1,5/36=2,99/5=2) pseudo=read geom=check gue
 ss=(read,tcheck) scf=(maxcycle=1)
 ----------------------------------------------------------------------
 -----
 title
 -----
 Structure from the checkpoint file:  "HB300SPXx10_1323_4.37_0.90_hydrogenchloride_dimethylsulfide_dimer_mol1.chk"
 Charge =  0 Multiplicity = 1

                         Standard orientation:
 ---------------------------------------------------------------------
 Center     Atomic      Atomic             Coordinates (Angstroms)
 Number     Number       Type             X           Y           Z
 ---------------------------------------------------------------------
      1          1           0       -0.907363   -0.000003   -0.446416
      2         17           0       -2.137790   -0.000002    0.043172
      3          1           0        0.357439   -1.354202    1.232725
      4          1           0        2.126575   -1.365703    0.994825
      5          1           0        1.074768   -2.299390   -0.083821
      6          1           0        1.074758    2.299393   -0.083823
      7          1           0        2.126565    1.365710    0.994828
      8          1           0        0.357427    1.354203    1.232722
      9          6           0        1.159308   -1.385386    0.498105
     10         16           0        1.013789    0.000001   -0.659514
     11          6           0        1.159300    1.385388    0.498105
 ---------------------------------------------------------------------

 SCF Done:  E(RHF) =  -937.087229178     A.U. after    2 cycles

 The electronic state is 1-A.
 Alpha  occ. eigenvalues -- -105.53739 -93.96854 -11.27899 -11.27870 -10.58627
 Alpha  occ. eigenvalues --   -8.25047  -7.75579  -7.75255  -7.75254  -6.22850
 Alpha  occ. eigenvalues --   -6.22696  -6.22531  -1.11530  -1.03176  -0.97859
 Alpha  occ. eigenvalues --   -0.85193  -0.65198  -0.62993  -0.60586  -0.59242
 Alpha  occ. eigenvalues --   -0.58741  -0.52628  -0.46747  -0.45040  -0.45038
 Alpha  occ. eigenvalues --   -0.37062
 Alpha virt. eigenvalues --    0.03213   0.03701   0.04726   0.05436   0.06853
 Alpha virt. eigenvalues --    0.07672   0.07989   0.09586   0.12417   0.12499
 Alpha virt. eigenvalues --    0.14865   0.15211   0.15319   0.16241   0.16648

 Mulliken charges:
               1
     1  H    0.542992
     2  Cl  -0.292207
     3  H    0.117515
     4  H    0.171452
     5  H    0.153604
     6  H    0.153605
     7  H    0.171452
     8  H    0.117516
     9  C   -0.521331
    10  S   -0.093268
    11  C   -0.521332
 Sum of Mulliken charges =  -0.00000

 Dipole moment (field-independent basis, Debye):
    X=              3.1956    Y=              0.0000    Z=              1.2096  Tot=              3.4168

 Test job not archived.
 1\1\GINC-SE125\SP\RHF\Aug-CC-pVDZ\C2H7Cl1S1\OHZDE\09-Apr-2025\0\\#t hf
  aug-cc-pvdz iop(5/13=1,5/36=2,99/5=2) pseudo=read geom=check guess=(r
 ead,tcheck) scf=(maxcycle=1)\\title\\0,1\H,0,-0.09169332,-0.01707414,-
 1.03147385\Cl,0,0.64323048,-0.44620369,-2.04605842\H,0,1.62854305,0.73
 998916,0.61799217\H,0,0.97657969,1.1764448,2.22143264\H,0,0.73787337,2
 .25661631,0.83658821\H,0,-1.31480825,-1.85100688,1.08705795\H,0,-0.242
 59102,-1.26325006,2.3701951\H,0,0.41963726,-1.67915243,0.76549837\C,0,
 0.80720674,1.21766099,1.14796307\S,0,-0.76646062,0.42720063,0.72452854

 Normal termination of Gaussian 16 at Wed Apr  9 19:29:53 2025.
