 Gaussian 16, Revision C.01,

 ----------------------------------------------------------------------
 #t hf aug-cc-pvdz symm=none int=(grid=ultrafine) guess=(read,tcheck) s
 table=(opt,rrhf)
 ----------------------------------------------------------------------
 -----
 title
 -----
 Symbolic Z-matrix:
 Charge =  0 Multiplicity = 1

 SCF Done:  E(RHF) =  -605.479881595     A.U. after   13 cycles
 Normal termination of Gaussian 16 at Wed Apr  9 19:27:47 2025.
 Gaussian 16:  ES64L-G16RevC.01  3-Jul-2019

 ----------------------------------------------------------------------
 #t hf aug-cc-pvdz iop(5/13=1,5/36=2,99/5=2) pseudo=read geom=check gue
 ss=(read,tcheck) scf=(maxcycle=1)
 ----------------------------------------------------------------------
 -----
 title
 -----
 Structure from the checkpoint file:  "HB300SPXx10_115_1.12_1.00_sulfane_methylcyanate_dimer_mol1.chk"
 Charge =  0 Multiplicity = 1

                         Standard orientation:
 ---------------------------------------------------------------------
 Center     Atomic      Atomic             Coordinates (Angstroms)
 Number     Number       Type             X           Y           Z
 ---------------------------------------------------------------------
      1          1           0        1.504989    0.884261    0.020463
      2          1           0        2.581878   -0.241825    1.181929
      3         16           0        2.273095   -0.209605   -0.122742
      4          1           0       -1.749450   -1.346140    1.310714
      5          1           0       -2.005780   -2.223860   -0.224763
      6          1           0       -0.384933   -1.567865    0.169482
      7          6           0       -1.458139   -1.429448    0.266950
      8          8           0       -1.851369   -0.209273   -0.437299
      9          6           0       -1.261444    0.862838   -0.060027
     10          7           0       -0.741110    1.846137    0.251844
 ---------------------------------------------------------------------

 SCF Done:  E(RHF) =  -605.746797972     A.U. after    2 cycles

 The electronic state is 1-A.
 Alpha  occ. eigenvalues --  -93.95996 -20.64794 -15.51231 -11.34884 -11.33764
 Alpha  occ. eigenvalues --   -8.24104  -6.21982  -6.21866  -6.21628  -1.57736
 Alpha  occ. eigenvalues --   -1.23853  -1.01766  -1.01449  -0.80456  -0.71294
 Alpha  occ. eigenvalues --   -0.70063  -0.61947  -0.59923  -0.59054  -0.58398
 Alpha  occ. eigenvalues --   -0.50991  -0.49207  -0.46792  -0.39131
 Alpha virt. eigenvalues --    0.02827   0.04173   0.04835   0.05823   0.07476
 Alpha virt. eigenvalues --    0.09045   0.10676   0.11157   0.11742   0.12805
 Alpha virt. eigenvalues --    0.13950   0.14305   0.14812   0.15280   0.16043

 Mulliken charges:
               1
     1  H    0.391696
     2  H    0.265285
     3  S   -0.654904
     4  H    0.162158
     5  H    0.050964
     6  H    0.168401
     7  C    0.352775
     8  O   -1.037496
     9  C   -0.430694
    10  N    0.731815
 Sum of Mulliken charges =  -0.00000

 Dipole moment (field-independent basis, Debye):
    X=             -1.4515    Y=             -4.4148    Z=              0.9963  Tot=              4.7528

 Test job not archived.
 1\1\GINC-SE159\SP\RHF\Aug-CC-pVDZ\C2H5N1O1S1\OHZDE\09-Apr-2025\0\\#t h
 f aug-cc-pvdz iop(5/13=1,5/36=2,99/5=2) pseudo=read geom=check guess=(
 read,tcheck) scf=(maxcycle=1)\\title\\0,1\H,0,1.70020261,0.23216325,0.
 14198181\H,0,1.83071194,2.07603691,0.74186388\S,0,1.65222468,0.8789214
 7,1.31945248\H,0,-2.28416111,1.05601784,-0.68076633\H,0,-2.96439853,0.
 08762255,0.6583651\H,0,-1.29338063,0.72538118,0.77611748\C,0,-2.065471
 8,0.34599706,0.1125121\O,0,-1.61242634,-0.91073487,-0.48313662\C,0,-0.
 50737367,-0.851899,-1.12746881\N,0,0.49091429,-0.83359543,-1.70882443\

 Normal termination of Gaussian 16 at Wed Apr  9 19:27:51 2025.
