 Gaussian 16, Revision C.01,

 ----------------------------------------------------------------------
 #t hf aug-cc-pvdz symm=none int=(grid=ultrafine) guess=(read,tcheck) s
 table=(opt,rrhf)
 ----------------------------------------------------------------------
 -----
 title
 -----
 Symbolic Z-matrix:
 Charge =  0 Multiplicity = 1

 SCF Done:  E(RHF) =  -875.450893864     A.U. after   12 cycles
 Normal termination of Gaussian 16 at Wed Apr  9 04:10:27 2025.
 Gaussian 16:  ES64L-G16RevC.01  3-Jul-2019

 ----------------------------------------------------------------------
 #t hf aug-cc-pvdz iop(5/13=1,5/36=2,99/5=2) pseudo=read geom=check gue
 ss=(read,tcheck) scf=(maxcycle=1)
 ----------------------------------------------------------------------
 -----
 title
 -----
 Structure from the checkpoint file:  "HB300SPXx10_1192_4.24_0.85_methanethiol_methanethiol_dimer_mol1.chk"
 Charge =  0 Multiplicity = 1

                         Standard orientation:
 ---------------------------------------------------------------------
 Center     Atomic      Atomic             Coordinates (Angstroms)
 Number     Number       Type             X           Y           Z
 ---------------------------------------------------------------------
      1          1           0       -0.881024    0.922403    1.370582
      2          1           0       -2.638591    0.891492    1.198197
      3          1           0       -1.669285    1.828437    0.055366
      4          1           0       -0.469874   -0.304577   -0.975457
      5          6           0       -1.698435    0.922681    0.654027
      6         16           0       -1.657506   -0.562541   -0.399451
      7          1           0        2.035703   -0.463336    1.759513
      8          1           0        2.076648   -1.697731    0.495969
      9          1           0        0.516225   -1.066224    1.031120
     10          1           0        1.095868    1.435635    0.152245
     11          6           0        1.556628   -0.811340    0.849486
     12         16           0        1.706579    0.424157   -0.482337
 ---------------------------------------------------------------------

 SCF Done:  E(RHF) =  -875.666702138     A.U. after    2 cycles

 The electronic state is 1-A.
 Alpha  occ. eigenvalues --  -93.95793 -93.93719 -11.27080 -11.26865  -8.23904
 Alpha  occ. eigenvalues --   -8.21883  -6.21756  -6.21609  -6.21395  -6.19739
 Alpha  occ. eigenvalues --   -6.19601  -6.19377  -1.07683  -1.05342  -0.89322
 Alpha  occ. eigenvalues --   -0.88409  -0.63499  -0.61958  -0.60700  -0.58778
 Alpha  occ. eigenvalues --   -0.54496  -0.53255  -0.47669  -0.46743  -0.36938
 Alpha  occ. eigenvalues --   -0.35804
 Alpha virt. eigenvalues --    0.03251   0.03770   0.04525   0.04883   0.07043
 Alpha virt. eigenvalues --    0.07297   0.07480   0.08834   0.10478   0.12616
 Alpha virt. eigenvalues --    0.13051   0.13345   0.14722   0.14900   0.15381

 Mulliken charges:
               1
     1  H    0.149064
     2  H    0.103483
     3  H    0.142945
     4  H    0.513112
     5  C   -0.653829
     6  S   -0.206227
     7  H    0.139062
     8  H    0.153853
     9  H    0.144392
    10  H    0.367656
    11  C   -0.599478
    12  S   -0.254035
 Sum of Mulliken charges =  -0.00000

 Dipole moment (field-independent basis, Debye):
    X=              0.5765    Y=              0.9144    Z=              1.9807  Tot=              2.2565

 Test job not archived.
 1\1\GINC-SE090\SP\RHF\Aug-CC-pVDZ\C2H8S2\OHZDE\09-Apr-2025\0\\#t hf au
 g-cc-pvdz iop(5/13=1,5/36=2,99/5=2) pseudo=read geom=check guess=(read
 ,tcheck) scf=(maxcycle=1)\\title\\0,1\H,0,1.48841111,-0.83932977,-0.94
 699875\H,0,2.60301323,-1.84400864,-0.01533608\H,0,2.55978836,-0.100175
 65,0.26866848\H,0,0.07877426,-0.11956038,1.21477831\C,0,1.95766928,-0.
 9705586,0.02469451\S,0,0.71991769,-1.29709475,1.32035013\H,0,-1.426936
 48,-0.08918535,-2.17861125\H,0,-2.49683574,-0.1568477,-0.77408753\H,0,
 -0.94917701,-1.0063863,-0.71801856\H,0,0.45941267,1.3046227,-0.9249449

 Normal termination of Gaussian 16 at Wed Apr  9 04:10:30 2025.
