 Gaussian 16, Revision C.01,

 ----------------------------------------------------------------------
 #t hf aug-cc-pvdz symm=none int=(grid=ultrafine) guess=(read,tcheck) s
 table=(opt,rrhf)
 ----------------------------------------------------------------------
 -----
 title
 -----
 Symbolic Z-matrix:
 Charge =  0 Multiplicity = 1

 SCF Done:  E(RHF) =  -747.044126405     A.U. after   14 cycles
 Normal termination of Gaussian 16 at Wed Apr  9 19:33:36 2025.
 Gaussian 16:  ES64L-G16RevC.01  3-Jul-2019

 ----------------------------------------------------------------------
 #t hf aug-cc-pvdz iop(5/13=1,5/36=2,99/5=2) pseudo=read geom=check gue
 ss=(read,tcheck) scf=(maxcycle=1)
 ----------------------------------------------------------------------
 -----
 title
 -----
 Structure from the checkpoint file:  "HB300SPXx10_1453_5.08_0.90_methylcyanate_phosphineF2_dimer_mol1.chk"
 Charge =  0 Multiplicity = 1

                         Standard orientation:
 ---------------------------------------------------------------------
 Center     Atomic      Atomic             Coordinates (Angstroms)
 Number     Number       Type             X           Y           Z
 ---------------------------------------------------------------------
      1          1           0       -2.659966   -1.062384    1.322418
      2          1           0       -3.247481   -1.788423   -0.201455
      3          1           0       -1.488231   -1.655804    0.104735
      4          6           0       -2.462585   -1.205221    0.263495
      5          8           0       -2.508568    0.092599   -0.411189
      6          6           0       -1.626008    0.940385   -0.040993
      7          7           0       -0.835613    1.724713    0.266753
      8         15           0        1.590099    0.333260   -0.160710
      9          9           0        0.636093   -0.964641   -0.082618
     10          9           0        2.985117   -0.418023    0.091252
     11          1           0        1.402695    0.726917    1.194464
 ---------------------------------------------------------------------

 SCF Done:  E(RHF) =  -747.471033938     A.U. after    2 cycles

 The electronic state is 1-A.
 Alpha  occ. eigenvalues --  -84.40043 -26.48105 -26.46924 -20.65426 -15.52003
 Alpha  occ. eigenvalues --  -11.35994 -11.34046  -6.85685  -4.38500  -4.37891
 Alpha  occ. eigenvalues --   -4.36768  -1.61788  -1.58449  -1.57189  -1.24987
 Alpha  occ. eigenvalues --   -1.01986  -0.87872  -0.81016  -0.72389  -0.70971
 Alpha  occ. eigenvalues --   -0.70709  -0.69975  -0.68577  -0.64395  -0.63355
 Alpha  occ. eigenvalues --   -0.61623  -0.59739  -0.59341  -0.56574  -0.50259
 Alpha  occ. eigenvalues --   -0.47807  -0.37395
 Alpha virt. eigenvalues --    0.02827   0.04496   0.05441   0.05692   0.07279
 Alpha virt. eigenvalues --    0.09299   0.09560   0.10390   0.11349   0.11791
 Alpha virt. eigenvalues --    0.13435   0.14273   0.14947   0.15460   0.15888

 Mulliken charges:
               1
     1  H    0.149832
     2  H    0.043484
     3  H    0.173534
     4  C    0.387428
     5  O   -1.043479
     6  C   -0.540313
     7  N    0.854432
     8  P    1.448056
     9  F   -0.864422
    10  F   -0.751955
    11  H    0.143404
 Sum of Mulliken charges =  -0.00000

 Dipole moment (field-independent basis, Debye):
    X=             -3.4104    Y=             -2.9324    Z=              0.4468  Tot=              4.5199

 Test job not archived.
 1\1\GINC-SE222\SP\RHF\Aug-CC-pVDZ\C2H4F2N1O1P1\OHZDE\09-Apr-2025\0\\#t
  hf aug-cc-pvdz iop(5/13=1,5/36=2,99/5=2) pseudo=read geom=check guess
 =(read,tcheck) scf=(maxcycle=1)\\title\\0,1\H,0,-2.89287834,1.38344137
 ,-2.41875402\H,0,-2.88368966,0.15494314,-3.71690786\H,0,-2.33807438,-0
 .28314113,-2.0686702\C,0,-2.39546429,0.50243917,-2.8151059\O,0,-1.0419
 8507,0.86597867,-3.23651367\C,0,-0.26338211,1.27221362,-2.30729377\N,0
 ,0.4658792,1.6354549,-1.48824768\P,0,0.41264607,-0.5077998,0.35744166\
 F,0,-0.97495618,-0.86004145,-0.38502776\F,0,0.16538593,-1.37568336,1.6

 Normal termination of Gaussian 16 at Wed Apr  9 19:33:40 2025.
