 Gaussian 16, Revision C.01,

 ----------------------------------------------------------------------
 #t hf aug-cc-pvdz symm=none int=(grid=ultrafine) guess=(read,tcheck) s
 table=(opt,rrhf)
 ----------------------------------------------------------------------
 -----
 title
 -----
 Symbolic Z-matrix:
 Charge =  0 Multiplicity = 1

 SCF Done:  E(RHF) =  -1037.70144349     A.U. after   14 cycles
 Normal termination of Gaussian 16 at Wed Apr  9 19:34:50 2025.
 Gaussian 16:  ES64L-G16RevC.01  3-Jul-2019

 ----------------------------------------------------------------------
 #t hf aug-cc-pvdz iop(5/13=1,5/36=2,99/5=2) pseudo=read geom=check gue
 ss=(read,tcheck) scf=(maxcycle=1)
 ----------------------------------------------------------------------
 -----
 title
 -----
 Structure from the checkpoint file:  "HB300SPXx10_1477_5.10_1.10_phosphaalkene_phosphineF2_dimer_mol1.chk"
 Charge =  0 Multiplicity = 1

                         Standard orientation:
 ---------------------------------------------------------------------
 Center     Atomic      Atomic             Coordinates (Angstroms)
 Number     Number       Type             X           Y           Z
 ---------------------------------------------------------------------
      1          1           0       -1.898000   -2.904648   -0.582846
      2          1           0       -0.868421   -2.197150    0.663395
      3          1           0       -2.629992   -2.024955    0.758405
      4          1           0       -1.465825    2.161876   -1.515981
      5          1           0       -0.559239    1.178144    1.991144
      6          1           0       -2.252169    2.751790   -0.046955
      7          1           0       -0.500691    2.629388   -0.108501
      8          1           0       -1.455465   -0.341705    2.003329
      9          1           0       -2.308944    1.204436    2.049504
     10         15           0       -1.684156   -0.518844   -0.963566
     11          6           0       -1.506765    0.749822    0.125902
     12          6           0       -1.426299    2.145670   -0.428301
     13          6           0       -1.454691    0.673269    1.620453
     14          6           0       -1.776993   -2.051021    0.081595
     15         15           0        1.904893    0.255394   -0.216606
     16          9           0        3.501622    0.109312   -0.251973
     17          9           0        1.603973   -0.893785    0.858752
     18          1           0        1.665825   -0.551610   -1.367817
 ---------------------------------------------------------------------

 SCF Done:  E(RHF) =  -1038.14096558     A.U. after    2 cycles

 The electronic state is 1-A.
 Alpha  occ. eigenvalues --  -84.41039 -84.25545 -26.48317 -26.47887 -11.27545
 Alpha  occ. eigenvalues --  -11.24371 -11.24099 -11.23359  -6.86685  -6.72878
 Alpha  occ. eigenvalues --   -4.39530  -4.38901  -4.37916  -4.25815  -4.24900
 Alpha  occ. eigenvalues --   -4.24367  -1.62308  -1.57744  -1.09148  -0.98064
 Alpha  occ. eigenvalues --   -0.95610  -0.88304  -0.84833  -0.71084  -0.70903
 Alpha  occ. eigenvalues --   -0.69307  -0.68989  -0.64885  -0.62246  -0.61364
 Alpha  occ. eigenvalues --   -0.60997  -0.59896  -0.57767  -0.57380  -0.55693
 Alpha  occ. eigenvalues --   -0.55532  -0.52491  -0.46856  -0.38569  -0.35140
 Alpha  occ. eigenvalues --   -0.31700
 Alpha virt. eigenvalues --    0.03544   0.03895   0.04273   0.04455   0.05836
 Alpha virt. eigenvalues --    0.06213   0.06544   0.06953   0.07788   0.08308
 Alpha virt. eigenvalues --    0.09413   0.09875   0.10514   0.11277   0.11886

 Mulliken charges:
               1
     1  H   -0.030611
     2  H    0.068925
     3  H    0.114091
     4  H    0.129897
     5  H    0.204135
     6  H    0.223427
     7  H    0.235453
     8  H    0.086020
     9  H    0.224497
    10  P    1.100203
    11  C   -0.373700
    12  C   -0.467022
    13  C   -0.549069
    14  C   -0.860180
    15  P    1.485373
    16  F   -0.783273
    17  F   -0.848764
    18  H    0.040598
 Sum of Mulliken charges =  -0.00000

 Dipole moment (field-independent basis, Debye):
    X=             -1.4305    Y=              0.4141    Z=              0.2275  Tot=              1.5065

 Test job not archived.
 1\1\GINC-SE098\SP\RHF\Aug-CC-pVDZ\C4H10F2P2\OHZDE\09-Apr-2025\0\\#t hf
  aug-cc-pvdz iop(5/13=1,5/36=2,99/5=2) pseudo=read geom=check guess=(r
 ead,tcheck) scf=(maxcycle=1)\\title\\0,1\H,0,-0.66372889,3.26375392,-1
 .41484082\H,0,0.57607353,2.07688321,-1.82463407\H,0,-0.55842324,2.6448
 712,-3.06242126\H,0,-2.87100416,-1.40911587,-1.55416728\H,0,0.42715494
 ,-1.23076192,-3.33739031\H,0,-2.60862974,-1.75549695,-3.26751243\H,0,-
 1.47646146,-2.36750684,-2.07165071\H,0,0.4157342,0.51539066,-3.5906339
 2\H,0,-0.67072928,-0.53226666,-4.50884988\P,0,-1.6570918,1.05342876,-1

 Normal termination of Gaussian 16 at Wed Apr  9 19:34:58 2025.
