 Gaussian 16, Revision C.01,

 ----------------------------------------------------------------------
 #t hf aug-cc-pvdz symm=none int=(grid=ultrafine) guess=(read,tcheck) s
 table=(opt,rrhf)
 ----------------------------------------------------------------------
 -----
 title
 -----
 Symbolic Z-matrix:
 Charge =  0 Multiplicity = 1

 SCF Done:  E(RHF) =  -1054.88452934     A.U. after   15 cycles
 Normal termination of Gaussian 16 at Wed Apr  9 19:34:17 2025.
 Gaussian 16:  ES64L-G16RevC.01  3-Jul-2019

 ----------------------------------------------------------------------
 #t hf aug-cc-pvdz iop(5/13=1,5/36=2,99/5=2) pseudo=read geom=check gue
 ss=(read,tcheck) scf=(maxcycle=1)
 ----------------------------------------------------------------------
 -----
 title
 -----
 Structure from the checkpoint file:  "HB300SPXx10_1482_5.11_0.85_thioacetone_phosphineF2_dimer_mol1.chk"
 Charge =  0 Multiplicity = 1

                         Standard orientation:
 ---------------------------------------------------------------------
 Center     Atomic      Atomic             Coordinates (Angstroms)
 Number     Number       Type             X           Y           Z
 ---------------------------------------------------------------------
      1          1           0        0.443749    1.626244   -0.149557
      2          1           0        1.668271    1.915120    1.103616
      3          1           0        2.089355    2.141531   -0.578223
      4          1           0        3.699340   -1.147168    0.240881
      5          1           0        3.997231    0.447177   -0.484947
      6          6           0        1.493197    1.523760    0.097713
      7          6           0        1.958931    0.103091    0.032079
      8         16           0        0.958627   -1.144799   -0.268906
      9          6           0        3.424243   -0.098501    0.269029
     10          1           0        3.705139    0.326921    1.235804
     11         15           0       -1.781280   -0.233443    0.288293
     12          9           0       -3.385564   -0.109809    0.280781
     13          9           0       -1.476766    1.056667   -0.615162
     14          1           0       -1.719161   -1.183223   -0.772989
 ---------------------------------------------------------------------

 SCF Done:  E(RHF) =  -1055.29616232     A.U. after    2 cycles

 The electronic state is 1-A.
 Alpha  occ. eigenvalues --  -93.93636 -84.39324 -26.47137 -26.45734 -11.34497
 Alpha  occ. eigenvalues --  -11.26180 -11.25495  -8.22056  -6.84926  -6.19859
 Alpha  occ. eigenvalues --   -6.19657  -6.19467  -4.37763  -4.37154  -4.36075
 Alpha  occ. eigenvalues --   -1.60893  -1.56098  -1.14626  -0.99031  -0.98078
 Alpha  occ. eigenvalues --   -0.86933  -0.74789  -0.69662  -0.69432  -0.68335
 Alpha  occ. eigenvalues --   -0.63761  -0.63259  -0.63168  -0.62897  -0.60349
 Alpha  occ. eigenvalues --   -0.57396  -0.56884  -0.54443  -0.51217  -0.41593
 Alpha  occ. eigenvalues --   -0.37599  -0.34689
 Alpha virt. eigenvalues --    0.02950   0.03309   0.04247   0.05050   0.05702
 Alpha virt. eigenvalues --    0.06325   0.07151   0.07784   0.09223   0.09432
 Alpha virt. eigenvalues --    0.10557   0.11884   0.12479   0.14116   0.14398

 Mulliken charges:
               1
     1  H   -0.010599
     2  H    0.305136
     3  H    0.285667
     4  H    0.172515
     5  H    0.257715
     6  C   -0.455046
     7  C   -0.532765
     8  S    0.160268
     9  C   -0.415289
    10  H    0.256017
    11  P    1.509948
    12  F   -0.792104
    13  F   -0.871111
    14  H    0.129647
 Sum of Mulliken charges =  -0.00000

 Dipole moment (field-independent basis, Debye):
    X=              4.0680    Y=              1.2671    Z=              0.6005  Tot=              4.3029

 Test job not archived.
 1\1\GINC-SE117\SP\RHF\Aug-CC-pVDZ\C3H7F2P1S1\OHZDE\09-Apr-2025\0\\#t h
 f aug-cc-pvdz iop(5/13=1,5/36=2,99/5=2) pseudo=read geom=check guess=(
 read,tcheck) scf=(maxcycle=1)\\title\\0,1\H,0,-0.82524406,-0.11851319,
 -2.18150719\H,0,-1.6981931,1.21808686,-2.95919937\H,0,-0.71897066,0.14
 764096,-3.93512177\H,0,1.41759528,3.22175764,-3.68330427\H,0,0.7352472
 6,2.04678605,-4.82844268\C,0,-0.77357806,0.63435768,-2.9583614\C,0,0.3
 925438,1.55581911,-2.78347778\S,0,1.39271927,1.4865874,-1.50157001\C,0
 ,0.57891903,2.56210758,-3.87735604\H,0,-0.33203334,3.15446018,-3.99493

 Normal termination of Gaussian 16 at Wed Apr  9 19:34:22 2025.
