 Gaussian 16, Revision C.01,

 ----------------------------------------------------------------------
 #t hf aug-cc-pvdz symm=none int=(grid=ultrafine) guess=(read,tcheck) s
 table=(opt,rrhf)
 ----------------------------------------------------------------------
 -----
 title
 -----
 Symbolic Z-matrix:
 Charge =  0 Multiplicity = 1

 SCF Done:  E(RHF) =  -571.992500766     A.U. after   12 cycles
 Normal termination of Gaussian 16 at Wed Apr  9 19:25:00 2025.
 Gaussian 16:  ES64L-G16RevC.01  3-Jul-2019

 ----------------------------------------------------------------------
 #t hf aug-cc-pvdz iop(5/13=1,5/36=2,99/5=2) pseudo=read geom=check gue
 ss=(read,tcheck) scf=(maxcycle=1)
 ----------------------------------------------------------------------
 -----
 title
 -----
 Structure from the checkpoint file:  "HB300SPXx10_1073_4.11_0.90_methylamine_dimethylsulfide_dimer_mol1.chk"
 Charge =  0 Multiplicity = 1

                         Standard orientation:
 ---------------------------------------------------------------------
 Center     Atomic      Atomic             Coordinates (Angstroms)
 Number     Number       Type             X           Y           Z
 ---------------------------------------------------------------------
      1          7           0       -1.715903   -0.786752    0.150887
      2          1           0       -2.083392   -1.718559    0.013171
      3          1           0       -0.944401   -0.667504   -0.496385
      4          6           0       -2.748770    0.218374   -0.096483
      5          1           0       -2.327359    1.211047    0.059964
      6          1           0       -3.182659    0.196433   -1.102929
      7          1           0       -3.558765    0.093867    0.621661
      8          1           0        1.438955    1.649111    1.296855
      9          1           0       -0.199100    0.963117    1.124927
     10          1           0        0.337949    2.282403    0.063163
     11          1           0        1.990411   -1.999325   -0.172570
     12          1           0        0.739027   -1.496189    0.983377
     13          1           0        2.415444   -0.916263    1.162121
     14          6           0        0.650848    1.386350    0.593658
     15         16           0        1.260060    0.211104   -0.643848
     16          6           0        1.635296   -1.182814    0.451492
 ---------------------------------------------------------------------

 SCF Done:  E(RHF) =  -572.252696531     A.U. after    2 cycles

 The electronic state is 1-A.
 Alpha  occ. eigenvalues --  -93.93850 -15.47141 -11.25690 -11.25513 -11.24749
 Alpha  occ. eigenvalues --   -8.21961  -6.19789  -6.19634  -6.19424  -1.16532
 Alpha  occ. eigenvalues --   -1.08303  -0.95577  -0.90192  -0.82463  -0.69424
 Alpha  occ. eigenvalues --   -0.62620  -0.61003  -0.60766  -0.58260  -0.57161
 Alpha  occ. eigenvalues --   -0.56794  -0.52851  -0.50157  -0.44212  -0.42204
 Alpha  occ. eigenvalues --   -0.34505
 Alpha virt. eigenvalues --    0.03752   0.04054   0.04252   0.04941   0.05999
 Alpha virt. eigenvalues --    0.06008   0.06719   0.07495   0.08609   0.09160
 Alpha virt. eigenvalues --    0.10109   0.11786   0.13482   0.14147   0.14946

 Mulliken charges:
               1
     1  N    0.072072
     2  H    0.193142
     3  H    0.046094
     4  C   -0.422969
     5  H    0.028757
     6  H    0.091166
     7  H    0.080558
     8  H    0.101653
     9  H    0.218353
    10  H    0.169189
    11  H    0.152441
    12  H    0.130302
    13  H    0.159921
    14  C   -0.563604
    15  S    0.160142
    16  C   -0.617217
 Sum of Mulliken charges =   0.00000

 Dipole moment (field-independent basis, Debye):
    X=             -0.5005    Y=             -0.3213    Z=              0.5998  Tot=              0.8447

 Test job not archived.
 1\1\GINC-SE014\SP\RHF\Aug-CC-pVDZ\C3H11N1S1\OHZDE\09-Apr-2025\0\\#t hf
  aug-cc-pvdz iop(5/13=1,5/36=2,99/5=2) pseudo=read geom=check guess=(r
 ead,tcheck) scf=(maxcycle=1)\\title\\0,1\N,0,-1.19251098,0.46771599,1.
 69699571\H,0,-2.17204653,0.34511648,1.91553075\H,0,-1.12099987,0.60068
 208,0.69419832\C,0,-0.64549649,1.62445241,2.40482331\H,0,0.40921091,1.
 73255139,2.15309408\H,0,-1.13947726,2.57752576,2.18276464\H,0,-0.70604
 436,1.45678733,3.47978713\H,0,2.21468986,-0.91558921,-0.22062026\H,0,1
 .11715318,-0.25233783,1.01989628\H,0,2.05509767,0.83689842,-0.02418537

 Normal termination of Gaussian 16 at Wed Apr  9 19:25:05 2025.
