 Gaussian 16, Revision C.01,

 ----------------------------------------------------------------------
 #t hf aug-cc-pvdz symm=none int=(grid=ultrafine) guess=(read,tcheck) s
 table=(opt,rrhf)
 ----------------------------------------------------------------------
 -----
 title
 -----
 Symbolic Z-matrix:
 Charge =  0 Multiplicity = 1

 SCF Done:  E(RHF) =  -1166.70449083     A.U. after   13 cycles
 Normal termination of Gaussian 16 at Wed Apr  9 19:32:24 2025.
 Gaussian 16:  ES64L-G16RevC.01  3-Jul-2019

 ----------------------------------------------------------------------
 #t hf aug-cc-pvdz iop(5/13=1,5/36=2,99/5=2) pseudo=read geom=check gue
 ss=(read,tcheck) scf=(maxcycle=1)
 ----------------------------------------------------------------------
 -----
 title
 -----
 Structure from the checkpoint file:  "HB300SPXx10_1394_5.02_0.95_dimethylsulfone_phosphineF2_dimer_mol1.chk"
 Charge =  0 Multiplicity = 1

                         Standard orientation:
 ---------------------------------------------------------------------
 Center     Atomic      Atomic             Coordinates (Angstroms)
 Number     Number       Type             X           Y           Z
 ---------------------------------------------------------------------
      1          1           0        2.201888    0.498933    2.085954
      2          1           0        1.398532   -1.091493    2.021574
      3          1           0        0.422538    0.393956    1.858580
      4          1           0        0.543104    1.910001   -0.412932
      5          1           0        1.654992    1.477571   -1.741273
      6          1           0        2.321450    2.083328   -0.203546
      7          8           0        2.948814   -0.670615   -0.362856
      8         16           0        1.619385   -0.180776   -0.109614
      9          8           0        0.488001   -0.893955   -0.665077
     10          6           0        1.383083   -0.068648    1.653672
     11          6           0        1.521129    1.510413   -0.662822
     12         15           0       -2.084998   -0.453787   -0.038926
     13          9           0       -3.636280   -0.043353   -0.074754
     14          9           0       -1.498845    1.000975    0.346746
     15          1           0       -1.881355   -0.325717   -1.440216
 ---------------------------------------------------------------------

 SCF Done:  E(RHF) =  -1167.22901156     A.U. after    2 cycles

 The electronic state is 1-A.
 Alpha  occ. eigenvalues --  -94.19776 -84.40235 -26.48326 -26.46980 -20.54460
 Alpha  occ. eigenvalues --  -20.53891 -11.29222 -11.29073  -8.45257  -6.85853
 Alpha  occ. eigenvalues --   -6.43378  -6.43137  -6.43063  -4.38660  -4.38075
 Alpha  occ. eigenvalues --   -4.36994  -1.61896  -1.57325  -1.56953  -1.44845
 Alpha  occ. eigenvalues --   -1.10354  -1.02529  -0.88030  -0.84235  -0.71524
 Alpha  occ. eigenvalues --   -0.70972  -0.70705  -0.69678  -0.69093  -0.67841
 Alpha  occ. eigenvalues --   -0.64723  -0.63075  -0.62671  -0.62223  -0.60561
 Alpha  occ. eigenvalues --   -0.59426  -0.56764  -0.50417  -0.50190  -0.46997
 Alpha  occ. eigenvalues --   -0.45053  -0.37501
 Alpha virt. eigenvalues --    0.02865   0.03929   0.04520   0.05227   0.06327
 Alpha virt. eigenvalues --    0.06600   0.07187   0.09063   0.09438   0.10674
 Alpha virt. eigenvalues --    0.12374   0.13633   0.13895   0.14413   0.14991

 Mulliken charges:
               1
     1  H    0.213861
     2  H    0.261640
     3  H    0.203182
     4  H    0.209356
     5  H    0.244402
     6  H    0.214557
     7  O   -1.492844
     8  S    3.028383
     9  O   -1.528680
    10  C   -0.644490
    11  C   -0.629022
    12  P    1.492650
    13  F   -0.790176
    14  F   -0.861789
    15  H    0.078968
 Sum of Mulliken charges =  -0.00000

 Dipole moment (field-independent basis, Debye):
    X=              0.7845    Y=              2.9037    Z=              1.8333  Tot=              3.5225

 Test job not archived.
 1\1\GINC-SE016\SP\RHF\Aug-CC-pVDZ\C2H7F2O2P1S1\OHZDE\09-Apr-2025\0\\#t
  hf aug-cc-pvdz iop(5/13=1,5/36=2,99/5=2) pseudo=read geom=check guess
 =(read,tcheck) scf=(maxcycle=1)\\title\\0,1\H,0,1.82037896,-1.1252997,
 2.45423408\H,0,2.45327614,-0.04590354,1.18406648\H,0,1.26048817,-1.302
 78481,0.75605091\H,0,-1.35656486,-1.06874241,1.510339\H,0,-1.8999986,0
 .31018714,2.5058364\H,0,-0.84910966,-0.93302114,3.2309401\O,0,0.704774
 22,1.412934,2.93921594\S,0,0.30796869,0.58975017,1.82729483\O,0,-0.016
 49706,1.22000253,0.56448154\C,0,1.58998555,-0.61149627,1.52558836\C,0,

 Normal termination of Gaussian 16 at Wed Apr  9 19:32:30 2025.
