 Gaussian 16, Revision C.01,

 ----------------------------------------------------------------------
 #t hf aug-cc-pvdz symm=none int=(grid=ultrafine) guess=(read,tcheck) s
 table=(opt,rrhf)
 ----------------------------------------------------------------------
 -----
 title
 -----
 Symbolic Z-matrix:
 Charge =  0 Multiplicity = 1

 SCF Done:  E(RHF) =  -1013.77500772     A.U. after   12 cycles
 Normal termination of Gaussian 16 at Wed Apr  9 19:31:10 2025.
 Gaussian 16:  ES64L-G16RevC.01  3-Jul-2019

 ----------------------------------------------------------------------
 #t hf aug-cc-pvdz iop(5/13=1,5/36=2,99/5=2) pseudo=read geom=check gue
 ss=(read,tcheck) scf=(maxcycle=1)
 ----------------------------------------------------------------------
 -----
 title
 -----
 Structure from the checkpoint file:  "HB300SPXx10_1364_4.41_0.95_hydrogenchloride_tetrahydrothiophene_dimer_mol1.chk"
 Charge =  0 Multiplicity = 1

                         Standard orientation:
 ---------------------------------------------------------------------
 Center     Atomic      Atomic             Coordinates (Angstroms)
 Number     Number       Type             X           Y           Z
 ---------------------------------------------------------------------
      1          1           0       -1.470608   -0.448148    0.069778
      2         17           0       -2.523512    0.325793   -0.178648
      3          1           0        1.705102   -0.047669    1.961857
      4          1           0        0.011666    0.461707    2.034750
      5          1           0        1.767018    2.100384    0.832976
      6          1           0        0.115181   -0.222940   -1.820440
      7          1           0        0.212582    1.806482    0.055997
      8          1           0        1.530122   -1.284375   -1.755436
      9          1           0        1.929656    1.371035   -1.663323
     10          1           0        2.826602    0.346500   -0.546234
     11         16           0        0.351596   -1.242975    0.356305
     12          6           0        0.833807    0.217467    1.367482
     13          6           0        1.142411    1.334805    0.373177
     14          6           0        1.826640    0.680940   -0.826308
     15          6           0        0.971615   -0.522187   -1.219982
 ---------------------------------------------------------------------

 SCF Done:  E(RHF) =  -1014.08807427     A.U. after    2 cycles

 The electronic state is 1-A.
 Alpha  occ. eigenvalues -- -105.54080 -93.95618 -11.27745 -11.27728 -11.25253
 Alpha  occ. eigenvalues --  -11.24975 -10.58914  -8.23806  -7.75869  -7.75546
 Alpha  occ. eigenvalues --   -7.75543  -6.21583  -6.21470  -6.21291  -1.15623
 Alpha  occ. eigenvalues --   -1.03603  -1.00538  -1.00144  -0.81525  -0.81350
 Alpha  occ. eigenvalues --   -0.68330  -0.66622  -0.62287  -0.60838  -0.56105
 Alpha  occ. eigenvalues --   -0.52931  -0.51575  -0.50436  -0.50131  -0.45551
 Alpha  occ. eigenvalues --   -0.45164  -0.44703  -0.36368
 Alpha virt. eigenvalues --    0.03092   0.03531   0.03860   0.04752   0.06083
 Alpha virt. eigenvalues --    0.06653   0.07154   0.07630   0.07708   0.10763
 Alpha virt. eigenvalues --    0.12246   0.13713   0.14043   0.14148   0.14480

 Mulliken charges:
               1
     1  H    0.501373
     2  Cl  -0.306027
     3  H    0.135923
     4  H    0.116513
     5  H    0.151567
     6  H    0.082052
     7  H    0.109872
     8  H    0.171236
     9  H    0.141953
    10  H    0.111960
    11  S    0.109828
    12  C   -0.391943
    13  C   -0.290799
    14  C   -0.237365
    15  C   -0.406143
 Sum of Mulliken charges =  -0.00000

 Dipole moment (field-independent basis, Debye):
    X=              3.6266    Y=              0.8386    Z=             -0.1057  Tot=              3.7238

 Test job not archived.
 1\1\GINC-SE131\SP\RHF\Aug-CC-pVDZ\C4H9Cl1S1\OHZDE\09-Apr-2025\0\\#t hf
  aug-cc-pvdz iop(5/13=1,5/36=2,99/5=2) pseudo=read geom=check guess=(r
 ead,tcheck) scf=(maxcycle=1)\\title\\0,1\H,0,-0.21838216,0.19107529,-1
 .4737198\Cl,0,-0.27626126,1.34164549,-2.13866114\H,0,-1.61853319,-1.07
 278707,1.73060716\H,0,-2.046471,0.01356886,0.40049337\H,0,-0.87476922,
 1.08070454,2.56823894\H,0,1.83520367,0.20381594,-0.08772252\H,0,-0.317
 89035,1.57872745,0.97192823\H,0,2.17805215,-1.30267036,0.77592184\H,0,
 1.70242842,0.91053638,2.22326793\H,0,0.93306957,-0.59611248,2.71333654

 Normal termination of Gaussian 16 at Wed Apr  9 19:31:16 2025.
