 Gaussian 16, Revision C.01,

 ----------------------------------------------------------------------
 #t hf aug-cc-pvdz symm=none int=(grid=ultrafine) guess=(read,tcheck) s
 table=(opt,rrhf)
 ----------------------------------------------------------------------
 -----
 title
 -----
 Symbolic Z-matrix:
 Charge =  0 Multiplicity = 1

 SCF Done:  E(RHF) =  -991.402123543     A.U. after   12 cycles

 1\1\GINC-SE166\Stability\RHF\Aug-CC-pVDZ\C5H12S2\OHZDE\09-Apr-2025\0\\
 #t hf aug-cc-pvdz symm=none int=(grid=ultrafine) guess=(read,tcheck) s
 table=(opt,rrhf)\\title\\0,1\H,0,2.75511322,-2.75302781,-0.03281769\H,
 0,2.23328443,-3.6609344,1.39160682\H,0,2.88304587,-2.02859561,1.588775
 53\H,0,0.87227038,-0.86572365,0.25189781\C,0,2.28978938,-2.67174858,0.
 94522466\S,0,0.57786237,-2.06107277,0.80693494\H,0,-0.62549112,-0.7386
 4798,-1.56804463\H,0,-0.72040435,0.73187369,-2.54739972\H,0,-2.8629976
 7,0.06591897,-1.08678055\H,0,-0.576519,2.43471747,1.04602347\H,0,-2.32

 Normal termination of Gaussian 16 at Wed Apr  9 04:11:16 2025.
 Gaussian 16:  ES64L-G16RevC.01  3-Jul-2019

 ----------------------------------------------------------------------
 #t hf aug-cc-pvdz iop(5/13=1,5/36=2,99/5=2) pseudo=read geom=check gue
 ss=(read,tcheck) scf=(maxcycle=1)
 ----------------------------------------------------------------------
 -----
 title
 -----
 Structure from the checkpoint file:  "HB300SPXx10_1202_4.25_0.85_methanethiol_tetrahydrothiophene_dimer_mol1.chk"
 Charge =  0 Multiplicity = 1

                         Standard orientation:
 ---------------------------------------------------------------------
 Center     Atomic      Atomic             Coordinates (Angstroms)
 Number     Number       Type             X           Y           Z
 ---------------------------------------------------------------------
      1          1           0        3.485612    1.065381   -0.799765
      2          1           0        4.274071   -0.344446   -0.081223
      3          1           0        3.475347    0.835033    0.965899
      4          1           0        1.032156    0.326051   -0.011081
      5          6           0        3.430388    0.335348    0.002545
      6         16           0        1.923407   -0.680356   -0.139217
      7          1           0       -0.463340   -0.054420   -1.797239
      8          1           0       -1.912811    0.943976   -1.978398
      9          1           0       -2.248658   -1.649650   -1.405752
     10          1           0       -2.091375    0.367921    1.954711
     11          1           0       -3.190664   -0.469379   -0.496851
     12          1           0       -0.376697   -0.053138    2.064783
     13          1           0       -2.106015   -1.919122    1.182581
     14          1           0       -0.553209   -1.733758    0.378899
     15         16           0       -0.827002    1.350949    0.141832
     16          6           0       -1.349385    0.321727   -1.288477
     17          6           0       -2.177991   -0.818882   -0.703447
     18          6           0       -1.494696   -1.230178    0.599735
     19          6           0       -1.219466    0.051327    1.386576
 ---------------------------------------------------------------------

 SCF Done:  E(RHF) =  -991.744162947     A.U. after    2 cycles

 The electronic state is 1-A.
 Alpha  occ. eigenvalues --  -93.93820 -93.92468 -11.26520 -11.26448 -11.25717
 Alpha  occ. eigenvalues --  -11.24233 -11.24036  -8.21989  -8.20679  -6.19778
 Alpha  occ. eigenvalues --   -6.19663  -6.19466  -6.18542  -6.18399  -6.18186
 Alpha  occ. eigenvalues --   -1.14399  -1.04699  -0.99360  -0.99039  -0.87471
 Alpha  occ. eigenvalues --   -0.80257  -0.80120  -0.67163  -0.65436  -0.61170
 Alpha  occ. eigenvalues --   -0.60662  -0.58782  -0.56500  -0.52252  -0.51757
 Alpha  occ. eigenvalues --   -0.50508  -0.49211  -0.48954  -0.45564  -0.43659
 Alpha  occ. eigenvalues --   -0.34947  -0.34000
 Alpha virt. eigenvalues --    0.03395   0.03725   0.03828   0.04132   0.05474
 Alpha virt. eigenvalues --    0.05794   0.06117   0.06565   0.07878   0.08465
 Alpha virt. eigenvalues --    0.08767   0.09699   0.12260   0.12719   0.13639

 Mulliken charges:
               1
     1  H    0.131106
     2  H    0.129193
     3  H    0.125266
     4  H    0.737284
     5  C   -0.840018
     6  S   -0.191887
     7  H    0.108445
     8  H    0.137643
     9  H    0.121789
    10  H    0.102213
    11  H    0.105589
    12  H    0.133429
    13  H    0.144200
    14  H    0.147686
    15  S    0.146434
    16  C   -0.330036
    17  C   -0.309767
    18  C   -0.200705
    19  C   -0.397865
 Sum of Mulliken charges =  -0.00000

 Dipole moment (field-independent basis, Debye):
    X=             -0.8871    Y=             -0.2715    Z=              0.0949  Tot=              0.9326

 Test job not archived.
 1\1\GINC-SE166\SP\RHF\Aug-CC-pVDZ\C5H12S2\OHZDE\09-Apr-2025\0\\#t hf a
 ug-cc-pvdz iop(5/13=1,5/36=2,99/5=2) pseudo=read geom=check guess=(rea
 d,tcheck) scf=(maxcycle=1)\\title\\0,1\H,0,2.75511322,-2.75302781,-0.0
 3281769\H,0,2.23328443,-3.6609344,1.39160682\H,0,2.88304587,-2.0285956
 1,1.58877553\H,0,0.87227038,-0.86572365,0.25189781\C,0,2.28978938,-2.6
 7174858,0.94522466\S,0,0.57786237,-2.06107277,0.80693494\H,0,-0.625491
 12,-0.73864798,-1.56804463\H,0,-0.72040435,0.73187369,-2.54739972\H,0,
 -2.86299767,0.06591897,-1.08678055\H,0,-0.576519,2.43471747,1.04602347

 Normal termination of Gaussian 16 at Wed Apr  9 04:11:24 2025.
