 Gaussian 16, Revision C.01,

 ----------------------------------------------------------------------
 #t hf aug-cc-pvdz symm=none int=(grid=ultrafine) guess=(read,tcheck) s
 table=(opt,rrhf)
 ----------------------------------------------------------------------
 -----
 title
 -----
 Symbolic Z-matrix:
 Charge =  0 Multiplicity = 1

 SCF Done:  E(RHF) =  -991.411436485     A.U. after   12 cycles

 1\1\GINC-SE026\Stability\RHF\Aug-CC-pVDZ\C5H12S2\OHZDE\09-Apr-2025\0\\
 #t hf aug-cc-pvdz symm=none int=(grid=ultrafine) guess=(read,tcheck) s
 table=(opt,rrhf)\\title\\0,1\H,0,2.75511322,-2.75302781,-0.03281769\H,
 0,2.23328443,-3.6609344,1.39160682\H,0,2.88304587,-2.02859561,1.588775
 53\H,0,0.87227038,-0.86572365,0.25189781\C,0,2.28978938,-2.67174858,0.
 94522466\S,0,0.57786237,-2.06107277,0.80693494\H,0,-0.67044039,-0.3947
 9112,-1.7123463\H,0,-0.76535363,1.07573054,-2.69170139\H,0,-2.90794694
 ,0.40977582,-1.23108222\H,0,-0.62146827,2.77857433,0.9017218\H,0,-2.36

 Normal termination of Gaussian 16 at Wed Apr  9 19:29:36 2025.
 Gaussian 16:  ES64L-G16RevC.01  3-Jul-2019

 ----------------------------------------------------------------------
 #t hf aug-cc-pvdz iop(5/13=1,5/36=2,99/5=2) pseudo=read geom=check gue
 ss=(read,tcheck) scf=(maxcycle=1)
 ----------------------------------------------------------------------
 -----
 title
 -----
 Structure from the checkpoint file:  "HB300SPXx10_1205_4.25_1.00_methanethiol_tetrahydrothiophene_dimer_mol1.chk"
 Charge =  0 Multiplicity = 1

                         Standard orientation:
 ---------------------------------------------------------------------
 Center     Atomic      Atomic             Coordinates (Angstroms)
 Number     Number       Type             X           Y           Z
 ---------------------------------------------------------------------
      1          1           0        3.644128    1.140977   -0.814620
      2          1           0        4.506985   -0.199256   -0.049872
      3          1           0        3.630433    0.960027    0.956764
      4          1           0        1.230799    0.280821   -0.024648
      5          6           0        3.624115    0.431744    0.007747
      6         16           0        2.180736   -0.674538   -0.116911
      7          1           0       -0.560955   -0.075107   -1.791827
      8          1           0       -2.064684    0.830704   -2.012926
      9          1           0       -2.253309   -1.761121   -1.369131
     10          1           0       -2.246921    0.355649    1.933488
     11          1           0       -3.271608   -0.613366   -0.501814
     12          1           0       -0.511634    0.039574    2.069149
     13          1           0       -2.119972   -1.949036    1.226894
     14          1           0       -0.573065   -1.695139    0.430600
     15         16           0       -1.025030    1.360223    0.103370
     16          6           0       -1.472383    0.262314   -1.301066
     17          6           0       -2.238241   -0.908267   -0.690298
     18          6           0       -1.544546   -1.241895    0.629483
     19          6           0       -1.352527    0.075157    1.381566
 ---------------------------------------------------------------------

 SCF Done:  E(RHF) =  -991.752069632     A.U. after    2 cycles

 The electronic state is 1-A.
 Alpha  occ. eigenvalues --  -93.93644 -93.93469 -11.26321 -11.26290 -11.26200
 Alpha  occ. eigenvalues --  -11.24127 -11.24023  -8.21760  -8.21592  -6.19624
 Alpha  occ. eigenvalues --   -6.19482  -6.19393  -6.19275  -6.19261  -6.19057
 Alpha  occ. eigenvalues --   -1.14045  -1.05230  -0.99174  -0.98662  -0.87821
 Alpha  occ. eigenvalues --   -0.80121  -0.79849  -0.66867  -0.65239  -0.60963
 Alpha  occ. eigenvalues --   -0.60895  -0.59247  -0.56080  -0.52757  -0.51639
 Alpha  occ. eigenvalues --   -0.50388  -0.48904  -0.48828  -0.45980  -0.43353
 Alpha  occ. eigenvalues --   -0.35576  -0.34224
 Alpha virt. eigenvalues --    0.03408   0.03717   0.03876   0.04205   0.05372
 Alpha virt. eigenvalues --    0.05764   0.06090   0.06594   0.07951   0.08336
 Alpha virt. eigenvalues --    0.08615   0.09518   0.11894   0.12953   0.13505

 Mulliken charges:
               1
     1  H    0.141801
     2  H    0.140462
     3  H    0.137256
     4  H    0.530340
     5  C   -0.818378
     6  S   -0.127012
     7  H    0.110596
     8  H    0.146784
     9  H    0.130381
    10  H    0.119564
    11  H    0.103269
    12  H    0.126255
    13  H    0.151500
    14  H    0.101915
    15  S    0.298954
    16  C   -0.363610
    17  C   -0.310998
    18  C   -0.206398
    19  C   -0.412679
 Sum of Mulliken charges =  -0.00000

 Dipole moment (field-independent basis, Debye):
    X=             -0.5107    Y=             -0.4429    Z=              0.0753  Tot=              0.6802

 Test job not archived.
 1\1\GINC-SE026\SP\RHF\Aug-CC-pVDZ\C5H12S2\OHZDE\09-Apr-2025\0\\#t hf a
 ug-cc-pvdz iop(5/13=1,5/36=2,99/5=2) pseudo=read geom=check guess=(rea
 d,tcheck) scf=(maxcycle=1)\\title\\0,1\H,0,2.75511322,-2.75302781,-0.0
 3281769\H,0,2.23328443,-3.6609344,1.39160682\H,0,2.88304587,-2.0285956
 1,1.58877553\H,0,0.87227038,-0.86572365,0.25189781\C,0,2.28978938,-2.6
 7174858,0.94522466\S,0,0.57786237,-2.06107277,0.80693494\H,0,-0.670440
 39,-0.39479112,-1.7123463\H,0,-0.76535363,1.07573054,-2.69170139\H,0,-
 2.90794694,0.40977582,-1.23108222\H,0,-0.62146827,2.77857433,0.9017218

 Normal termination of Gaussian 16 at Wed Apr  9 19:29:44 2025.
