 Gaussian 16, Revision C.01,

 ----------------------------------------------------------------------
 #t hf aug-cc-pvdz symm=none int=(grid=ultrafine) guess=(read,tcheck) s
 table=(opt,rrhf)
 ----------------------------------------------------------------------
 -----
 title
 -----
 Symbolic Z-matrix:
 Charge =  0 Multiplicity = 1

 SCF Done:  E(RHF) =  -783.968480716     A.U. after   15 cycles
 Normal termination of Gaussian 16 at Wed Apr  9 19:33:35 2025.
 Gaussian 16:  ES64L-G16RevC.01  3-Jul-2019

 ----------------------------------------------------------------------
 #t hf aug-cc-pvdz iop(5/13=1,5/36=2,99/5=2) pseudo=read geom=check gue
 ss=(read,tcheck) scf=(maxcycle=1)
 ----------------------------------------------------------------------
 -----
 title
 -----
 Structure from the checkpoint file:  "HB300SPXx10_1463_5.09_0.90_nitromethane_phosphineF2_dimer_mol1.chk"
 Charge =  0 Multiplicity = 1

                         Standard orientation:
 ---------------------------------------------------------------------
 Center     Atomic      Atomic             Coordinates (Angstroms)
 Number     Number       Type             X           Y           Z
 ---------------------------------------------------------------------
      1          1           0       -1.471155    1.743107    0.075502
      2          1           0       -2.690924    1.192895   -1.098240
      3          1           0       -3.054742    1.160130    0.670681
      4          6           0       -2.298588    1.060093   -0.097144
      5          7           0       -1.720431   -0.314177   -0.009392
      6          8           0       -1.842488   -0.916019    1.038542
      7          8           0       -1.125871   -0.727086   -0.994286
      8         15           0        1.532094   -0.195219   -0.393911
      9          9           0        2.901480   -0.052593    0.420576
     10          9           0        0.749316    1.051588    0.255766
     11          1           0        0.959664   -1.175284    0.468204
 ---------------------------------------------------------------------

 SCF Done:  E(RHF) =  -784.428941706     A.U. after    2 cycles

 The electronic state is 1-A.
 Alpha  occ. eigenvalues --  -84.40445 -26.48471 -26.47501 -20.61364 -20.60388
 Alpha  occ. eigenvalues --  -15.80411 -11.32325  -6.86110  -4.38970  -4.38288
 Alpha  occ. eigenvalues --   -4.37202  -1.69248  -1.62294  -1.57778  -1.52898
 Alpha  occ. eigenvalues --   -1.13823  -0.90697  -0.88199  -0.79091  -0.78263
 Alpha  occ. eigenvalues --   -0.77383  -0.71229  -0.70379  -0.69163  -0.64884
 Alpha  occ. eigenvalues --   -0.64135  -0.62515  -0.61125  -0.57504  -0.51109
 Alpha  occ. eigenvalues --   -0.50342  -0.47198  -0.37817
 Alpha virt. eigenvalues --    0.03038   0.04172   0.05044   0.05808   0.06435
 Alpha virt. eigenvalues --    0.07960   0.09597   0.09769   0.10722   0.13139
 Alpha virt. eigenvalues --    0.13778   0.15131   0.16393   0.17126   0.18364

 Mulliken charges:
               1
     1  H    0.236254
     2  H    0.167217
     3  H    0.118101
     4  C   -0.252037
     5  N    2.530320
     6  O   -1.339298
     7  O   -1.403179
     8  P    1.487738
     9  F   -0.779330
    10  F   -0.846164
    11  H    0.080378
 Sum of Mulliken charges =   0.00000

 Dipole moment (field-independent basis, Debye):
    X=             -2.5993    Y=              2.0395    Z=             -0.6441  Tot=              3.3661

 Test job not archived.
 1\1\GINC-SE232\SP\RHF\Aug-CC-pVDZ\C1H4F2N1O2P1\OHZDE\09-Apr-2025\0\\#t
  hf aug-cc-pvdz iop(5/13=1,5/36=2,99/5=2) pseudo=read geom=check guess
 =(read,tcheck) scf=(maxcycle=1)\\title\\0,1\H,0,0.49481138,0.55069733,
 -2.50359179\H,0,-1.08891031,0.71291216,-3.29967626\H,0,-0.00441746,2.1
 4812453,-3.13671373\C,0,-0.34098337,1.21704881,-2.69950341\N,0,-0.9468
 7558,1.51662809,-1.36768821\O,0,-0.63929751,2.55888018,-0.82511637\O,0
 ,-1.68734525,0.66720154,-0.89420145\P,0,-0.01834723,-0.73511777,0.8251
 1735\F,0,1.11012556,-1.05776424,1.91203816\F,0,0.94966634,-0.35640333,

 Normal termination of Gaussian 16 at Wed Apr  9 19:33:39 2025.
