 Gaussian 16, Revision C.01,

 ----------------------------------------------------------------------
 #t hf aug-cc-pvdz symm=none int=(grid=ultrafine) guess=(read,tcheck) s
 table=(opt,rrhf)
 ----------------------------------------------------------------------
 -----
 title
 -----
 Symbolic Z-matrix:
 Charge =  0 Multiplicity = 1

 SCF Done:  E(RHF) =  -1166.70580851     A.U. after   13 cycles
 Normal termination of Gaussian 16 at Wed Apr  9 19:32:25 2025.
 Gaussian 16:  ES64L-G16RevC.01  3-Jul-2019

 ----------------------------------------------------------------------
 #t hf aug-cc-pvdz iop(5/13=1,5/36=2,99/5=2) pseudo=read geom=check gue
 ss=(read,tcheck) scf=(maxcycle=1)
 ----------------------------------------------------------------------
 -----
 title
 -----
 Structure from the checkpoint file:  "HB300SPXx10_1395_5.02_1.00_dimethylsulfone_phosphineF2_dimer_mol1.chk"
 Charge =  0 Multiplicity = 1

                         Standard orientation:
 ---------------------------------------------------------------------
 Center     Atomic      Atomic             Coordinates (Angstroms)
 Number     Number       Type             X           Y           Z
 ---------------------------------------------------------------------
      1          1           0        2.230702    0.506378    2.088517
      2          1           0        1.410112   -1.075311    2.026276
      3          1           0        0.452595    0.419921    1.844255
      4          1           0        0.612526    1.919855   -0.435507
      5          1           0        1.732428    1.466423   -1.750042
      6          1           0        2.390578    2.074551   -0.209675
      7          8           0        2.988342   -0.687230   -0.345347
      8         16           0        1.662110   -0.180876   -0.108349
      9          8           0        0.528245   -0.884871   -0.670430
     10          6           0        1.409818   -0.054748    1.651772
     11          6           0        1.588379    1.507711   -0.673194
     12         15           0       -2.154025   -0.458196   -0.033290
     13          9           0       -3.700149   -0.030611   -0.087030
     14          9           0       -1.555294    0.992347    0.348934
     15          1           0       -1.935224   -0.341449   -1.433283
 ---------------------------------------------------------------------

 SCF Done:  E(RHF) =  -1167.23013584     A.U. after    2 cycles

 The electronic state is 1-A.
 Alpha  occ. eigenvalues --  -94.19660 -84.40442 -26.48325 -26.47226 -20.54253
 Alpha  occ. eigenvalues --  -20.53785 -11.29170 -11.29084  -8.45135  -6.86059
 Alpha  occ. eigenvalues --   -6.43256  -6.43017  -6.42944  -4.38855  -4.38267
 Alpha  occ. eigenvalues --   -4.37193  -1.61937  -1.57398  -1.56791  -1.44633
 Alpha  occ. eigenvalues --   -1.10266  -1.02475  -0.88050  -0.84124  -0.71267
 Alpha  occ. eigenvalues --   -0.70939  -0.70643  -0.69632  -0.68980  -0.67949
 Alpha  occ. eigenvalues --   -0.64756  -0.62974  -0.62705  -0.62179  -0.60635
 Alpha  occ. eigenvalues --   -0.59393  -0.56992  -0.50238  -0.49973  -0.46826
 Alpha  occ. eigenvalues --   -0.44919  -0.37771
 Alpha virt. eigenvalues --    0.02872   0.03939   0.04520   0.05236   0.06292
 Alpha virt. eigenvalues --    0.06600   0.07174   0.08968   0.09408   0.10643
 Alpha virt. eigenvalues --    0.12261   0.13617   0.13880   0.14428   0.15001

 Mulliken charges:
               1
     1  H    0.215697
     2  H    0.259858
     3  H    0.198996
     4  H    0.204439
     5  H    0.244577
     6  H    0.215939
     7  O   -1.494486
     8  S    3.033172
     9  O   -1.538231
    10  C   -0.646491
    11  C   -0.632650
    12  P    1.496416
    13  F   -0.791744
    14  F   -0.844874
    15  H    0.079382
 Sum of Mulliken charges =  -0.00000

 Dipole moment (field-independent basis, Debye):
    X=              0.6865    Y=              2.9264    Z=              1.8277  Tot=              3.5179

 Test job not archived.
 1\1\GINC-SE026\SP\RHF\Aug-CC-pVDZ\C2H7F2O2P1S1\OHZDE\09-Apr-2025\0\\#t
  hf aug-cc-pvdz iop(5/13=1,5/36=2,99/5=2) pseudo=read geom=check guess
 =(read,tcheck) scf=(maxcycle=1)\\title\\0,1\H,0,1.82037896,-1.1252997,
 2.45423408\H,0,2.45327614,-0.04590354,1.18406648\H,0,1.26048817,-1.302
 78481,0.75605091\H,0,-1.35656486,-1.06874241,1.510339\H,0,-1.8999986,0
 .31018714,2.5058364\H,0,-0.84910966,-0.93302114,3.2309401\O,0,0.704774
 22,1.412934,2.93921594\S,0,0.30796869,0.58975017,1.82729483\O,0,-0.016
 49706,1.22000253,0.56448154\C,0,1.58998555,-0.61149627,1.52558836\C,0,

 Normal termination of Gaussian 16 at Wed Apr  9 19:32:31 2025.
