 Gaussian 16, Revision C.01,

 ----------------------------------------------------------------------
 #t hf aug-cc-pvdz symm=none int=(grid=ultrafine) guess=(read,tcheck) s
 table=(opt,rrhf)
 ----------------------------------------------------------------------
 -----
 title
 -----
 Symbolic Z-matrix:
 Charge =  0 Multiplicity = 1

 SCF Done:  E(RHF) =  -532.970516474     A.U. after   13 cycles
 Normal termination of Gaussian 16 at Wed Apr  9 19:23:48 2025.
 Gaussian 16:  ES64L-G16RevC.01  3-Jul-2019

 ----------------------------------------------------------------------
 #t hf aug-cc-pvdz iop(5/13=1,5/36=2,99/5=2) pseudo=read geom=check gue
 ss=(read,tcheck) scf=(maxcycle=1)
 ----------------------------------------------------------------------
 -----
 title
 -----
 Structure from the checkpoint file:  "HB300SPXx10_1044_4.08_0.95_ammonia_dimethylsulfide_dimer_mol1.chk"
 Charge =  0 Multiplicity = 1

                         Standard orientation:
 ---------------------------------------------------------------------
 Center     Atomic      Atomic             Coordinates (Angstroms)
 Number     Number       Type             X           Y           Z
 ---------------------------------------------------------------------
      1          7           0        2.854325   -0.267320    0.142669
      2          1           0        3.481642   -0.334479    0.933993
      3          1           0        1.991855   -0.736644    0.396144
      4          1           0        3.269583   -0.796524   -0.613610
      5          1           0       -0.206907    1.609305    1.051327
      6          1           0       -0.730581    2.037475   -0.596664
      7          1           0        0.947064    1.524059   -0.286748
      8          1           0       -2.516917   -1.451796    0.209304
      9          1           0       -2.824290    0.242066   -0.203172
     10          1           0       -2.172418   -0.184163    1.397485
     11          6           0       -0.093305    1.381064   -0.007160
     12         16           0       -0.480380   -0.358284   -0.329285
     13          6           0       -2.162233   -0.431983    0.337463
 ---------------------------------------------------------------------

 SCF Done:  E(RHF) =  -533.185427840     A.U. after    2 cycles

 The electronic state is 1-A.
 Alpha  occ. eigenvalues --  -93.93627 -15.47675 -11.25986 -11.25137  -8.21755
 Alpha  occ. eigenvalues --   -6.19589  -6.19429  -6.19208  -1.13687  -1.08089
 Alpha  occ. eigenvalues --   -0.95457  -0.82322  -0.66133  -0.65743  -0.60845
 Alpha  occ. eigenvalues --   -0.60457  -0.58186  -0.56825  -0.50017  -0.46204
 Alpha  occ. eigenvalues --   -0.44104  -0.34286
 Alpha virt. eigenvalues --    0.03662   0.03941   0.04491   0.05009   0.06680
 Alpha virt. eigenvalues --    0.06977   0.07850   0.07966   0.09287   0.11176
 Alpha virt. eigenvalues --    0.13469   0.14775   0.15496   0.16157   0.16725

 Mulliken charges:
               1
     1  N   -0.073657
     2  H    0.094497
     3  H   -0.047252
     4  H    0.099682
     5  H    0.205819
     6  H    0.155179
     7  H    0.146604
     8  H    0.142605
     9  H    0.183632
    10  H    0.169967
    11  C   -0.680121
    12  S    0.316304
    13  C   -0.713258
 Sum of Mulliken charges =  -0.00000

 Dipole moment (field-independent basis, Debye):
    X=             -0.7248    Y=             -0.1340    Z=              1.1456  Tot=              1.3622

 Test job not archived.
 1\1\GINC-SE048\SP\RHF\Aug-CC-pVDZ\C2H9N1S1\OHZDE\09-Apr-2025\0\\#t hf
 aug-cc-pvdz iop(5/13=1,5/36=2,99/5=2) pseudo=read geom=check guess=(re
 ad,tcheck) scf=(maxcycle=1)\\title\\0,1\N,0,-1.73355141,-2.37393966,0.
 81983189\H,0,-2.47172211,-2.47256241,1.50511242\H,0,-1.77953232,-1.428
 67287,0.45551723\H,0,-1.951459,-2.99867579,0.05388488\H,0,0.67268841,0
 .24587418,1.85187056\H,0,2.03975846,-0.2591543,0.82741714\H,0,0.702132
 58,-1.38548968,1.16838968\H,0,-0.02112431,2.36947533,-1.37681843\H,0,1
 .5593972,2.05809374,-0.64280581\H,0,0.15458574,2.43179943,0.38459842\C

 Normal termination of Gaussian 16 at Wed Apr  9 19:23:51 2025.
