 Gaussian 16, Revision C.01,

 ----------------------------------------------------------------------
 #t hf aug-cc-pvdz symm=none int=(grid=ultrafine) guess=(read,tcheck) s
 table=(opt,rrhf)
 ----------------------------------------------------------------------
 -----
 title
 -----
 Symbolic Z-matrix:
 Charge =  0 Multiplicity = 1

 SCF Done:  E(RHF) =  -747.045678500     A.U. after   14 cycles
 Normal termination of Gaussian 16 at Wed Apr  9 19:33:36 2025.
 Gaussian 16:  ES64L-G16RevC.01  3-Jul-2019

 ----------------------------------------------------------------------
 #t hf aug-cc-pvdz iop(5/13=1,5/36=2,99/5=2) pseudo=read geom=check gue
 ss=(read,tcheck) scf=(maxcycle=1)
 ----------------------------------------------------------------------
 -----
 title
 -----
 Structure from the checkpoint file:  "HB300SPXx10_1459_5.08_1.50_methylcyanate_phosphineF2_dimer_mol1.chk"
 Charge =  0 Multiplicity = 1

                         Standard orientation:
 ---------------------------------------------------------------------
 Center     Atomic      Atomic             Coordinates (Angstroms)
 Number     Number       Type             X           Y           Z
 ---------------------------------------------------------------------
      1          1           0       -3.529910   -1.062066    1.301207
      2          1           0       -4.125801   -1.753052   -0.235655
      3          1           0       -2.370277   -1.740663    0.116884
      4          6           0       -3.315020   -1.223191    0.248334
      5          8           0       -3.253428    0.071501   -0.431100
      6          6           0       -2.324473    0.858126   -0.039997
      7          7           0       -1.490168    1.587508    0.286408
      8         15           0        2.291506    0.391406   -0.160756
      9          9           0        1.248384   -0.837207   -0.104327
     10          9           0        3.624158   -0.453122    0.130442
     11          1           0        2.096084    0.803465    1.187798
 ---------------------------------------------------------------------

 SCF Done:  E(RHF) =  -747.471481285     A.U. after    2 cycles

 The electronic state is 1-A.
 Alpha  occ. eigenvalues --  -84.40865 -26.47763 -26.47656 -20.64884 -15.51134
 Alpha  occ. eigenvalues --  -11.34659 -11.34350  -6.86505  -4.39242  -4.38598
 Alpha  occ. eigenvalues --   -4.37583  -1.61727  -1.57904  -1.57206  -1.23575
 Alpha  occ. eigenvalues --   -1.01905  -0.87912  -0.80698  -0.71521  -0.70523
 Alpha  occ. eigenvalues --   -0.70384  -0.70256  -0.68707  -0.64405  -0.61801
 Alpha  occ. eigenvalues --   -0.61446  -0.59429  -0.58985  -0.57447  -0.49313
 Alpha  occ. eigenvalues --   -0.46775  -0.38258
 Alpha virt. eigenvalues --    0.02730   0.04579   0.05307   0.05487   0.06646
 Alpha virt. eigenvalues --    0.08541   0.09279   0.10028   0.11249   0.11999
 Alpha virt. eigenvalues --    0.12912   0.13910   0.14514   0.15638   0.16013

 Mulliken charges:
               1
     1  H    0.174660
     2  H    0.050401
     3  H    0.177375
     4  C    0.313117
     5  O   -1.019471
     6  C   -0.465387
     7  N    0.768065
     8  P    1.450986
     9  F   -0.776611
    10  F   -0.763482
    11  H    0.090347
 Sum of Mulliken charges =  -0.00000

 Dipole moment (field-independent basis, Debye):
    X=             -3.3837    Y=             -2.9433    Z=              0.3513  Tot=              4.4984

 Test job not archived.
 1\1\GINC-SE084\SP\RHF\Aug-CC-pVDZ\C2H4F2N1O1P1\OHZDE\09-Apr-2025\0\\#t
  hf aug-cc-pvdz iop(5/13=1,5/36=2,99/5=2) pseudo=read geom=check guess
 =(read,tcheck) scf=(maxcycle=1)\\title\\0,1\H,0,-2.89287834,1.38344137
 ,-2.41875402\H,0,-2.88368966,0.15494314,-3.71690786\H,0,-2.33807438,-0
 .28314113,-2.0686702\C,0,-2.39546429,0.50243917,-2.8151059\O,0,-1.0419
 8507,0.86597867,-3.23651367\C,0,-0.26338211,1.27221362,-2.30729377\N,0
 ,0.4658792,1.6354549,-1.48824768\P,0,1.32139154,-0.89240002,1.47986996
 \F,0,-0.0662107,-1.24464167,0.73740054\F,0,1.07413141,-1.76028358,2.80

 Normal termination of Gaussian 16 at Wed Apr  9 19:33:40 2025.
