 Gaussian 16, Revision C.01,

 ----------------------------------------------------------------------
 #t hf aug-cc-pvdz symm=none int=(grid=ultrafine) guess=(read,tcheck) s
 table=(opt,rrhf)
 ----------------------------------------------------------------------
 -----
 title
 -----
 Symbolic Z-matrix:
 Charge =  0 Multiplicity = 1

 SCF Done:  E(RHF) =  -855.895579251     A.U. after   14 cycles
 Normal termination of Gaussian 16 at Wed Apr  9 19:22:45 2025.
 Gaussian 16:  ES64L-G16RevC.01  3-Jul-2019

 ----------------------------------------------------------------------
 #t hf aug-cc-pvdz iop(5/13=1,5/36=2,99/5=2) pseudo=read geom=check gue
 ss=(read,tcheck) scf=(maxcycle=1)
 ----------------------------------------------------------------------
 -----
 title
 -----
 Structure from the checkpoint file:  "HB300SPXx10_1031_4.07_0.80_phosphaalkyne_methanethiol_dimer_mol1.chk"
 Charge =  0 Multiplicity = 1

                         Standard orientation:
 ---------------------------------------------------------------------
 Center     Atomic      Atomic             Coordinates (Angstroms)
 Number     Number       Type             X           Y           Z
 ---------------------------------------------------------------------
      1          1           0       -0.831819    2.119678    1.310293
      2          1           0       -1.108036    2.546418   -0.380850
      3          1           0        0.375960    1.705282    0.082172
      4         15           0       -2.014608   -0.865229   -0.170705
      5          6           0       -1.343161    0.501288    0.062974
      6          6           0       -0.695648    1.782749    0.281030
      7          1           0        0.748224   -0.196363    1.551651
      8          1           0        2.464623   -0.635054    1.593489
      9          1           0        1.281196   -1.779953    0.946053
     10          1           0        0.616091   -0.169655   -1.093792
     11          6           0        1.538935   -0.728532    1.031817
     12         16           0        1.854508    0.003440   -0.606460
 ---------------------------------------------------------------------

 SCF Done:  E(RHF) =  -856.123622226     A.U. after    2 cycles

 The electronic state is 1-A.
 Alpha  occ. eigenvalues --  -93.94230 -84.26470 -11.29221 -11.26598 -11.25790
 Alpha  occ. eigenvalues --   -8.22397  -6.74128  -6.20249  -6.20110  -6.19891
 Alpha  occ. eigenvalues --   -4.27085  -4.25542  -4.25379  -1.07266  -1.04759
 Alpha  occ. eigenvalues --   -0.92091  -0.88515  -0.67016  -0.63329  -0.60936
 Alpha  occ. eigenvalues --   -0.60441  -0.57932  -0.53411  -0.46888  -0.46586
 Alpha  occ. eigenvalues --   -0.36850  -0.35771  -0.34892
 Alpha virt. eigenvalues --    0.03434   0.03848   0.04799   0.05093   0.06289
 Alpha virt. eigenvalues --    0.06744   0.07077   0.07697   0.07889   0.09088
 Alpha virt. eigenvalues --    0.11310   0.12702   0.13145   0.14492   0.14799

 Mulliken charges:
               1
     1  H    0.253579
     2  H    0.161607
     3  H    0.145865
     4  P    0.779330
     5  C   -0.861853
     6  C   -0.480098
     7  H    0.166434
     8  H    0.141870
     9  H    0.160037
    10  H    0.448649
    11  C   -0.635319
    12  S   -0.280102
 Sum of Mulliken charges =   0.00000

 Dipole moment (field-independent basis, Debye):
    X=             -1.0346    Y=             -0.4152    Z=              1.1647  Tot=              1.6122

 Test job not archived.
 1\1\GINC-SE173\SP\RHF\Aug-CC-pVDZ\C3H7P1S1\OHZDE\09-Apr-2025\0\\#t hf
 aug-cc-pvdz iop(5/13=1,5/36=2,99/5=2) pseudo=read geom=check guess=(re
 ad,tcheck) scf=(maxcycle=1)\\title\\0,1\H,0,0.38933231,2.34404549,-1.6
 8180664\H,0,-1.19987448,1.75919838,-2.18254684\H,0,0.10218747,0.605834
 91,-1.86864837\P,0,-1.17058474,1.34195856,1.32892267\C,0,-0.7484701,1.
 45533882,-0.14816129\C,0,-0.34350289,1.5476729,-1.53972175\H,0,1.72096
 715,0.47011086,-0.0588601\H,0,2.76439326,-0.94929517,-0.25062584\H,0,1
 .69181035,-0.83092352,1.15152209\H,0,-0.52833264,-0.89766276,-0.352772

 Normal termination of Gaussian 16 at Wed Apr  9 19:22:49 2025.
