 Gaussian 16, Revision C.01,

 ----------------------------------------------------------------------
 #t hf aug-cc-pvdz symm=none int=(grid=ultrafine) guess=(read,tcheck) s
 table=(opt,rrhf)
 ----------------------------------------------------------------------
 -----
 title
 -----
 Symbolic Z-matrix:
 Charge =  0 Multiplicity = 1

 SCF Done:  E(RHF) =  -2555.67227055     A.U. after   14 cycles
 Normal termination of Gaussian 16 at Wed Apr  9 19:28:53 2025.
 Gaussian 16:  ES64L-G16RevC.01  3-Jul-2019

 ----------------------------------------------------------------------
 #t hf aug-cc-pvdz iop(5/13=1,5/36=2,99/5=2) pseudo=read geom=check gue
 ss=(read,tcheck) scf=(maxcycle=1)
 ----------------------------------------------------------------------
 -----
 title
 -----
 Structure from the checkpoint file:  "HB300SPXx10_1271_4.32_0.80_hydrogenfluoride_P4S3_dimer_mol3.chk"
 Charge =  0 Multiplicity = 1

                         Standard orientation:
 ---------------------------------------------------------------------
 Center     Atomic      Atomic             Coordinates (Angstroms)
 Number     Number       Type             X           Y           Z
 ---------------------------------------------------------------------
      1         16           0        0.657052   -0.648011    1.767550
      2         15           0       -1.369311   -0.439191    1.187071
      3         16           0        0.719996    1.839864   -0.299695
      4         16           0        0.744890   -1.209969   -1.401764
      5         15           0       -1.297454   -0.831925   -1.028956
      6         15           0       -1.313753    1.284804   -0.260036
      7         15           0        1.717117    0.005635    0.031424
 ---------------------------------------------------------------------

 SCF Done:  E(RHF) =  -2556.02808868     A.U. after    2 cycles

 The electronic state is 1-A.
 Alpha  occ. eigenvalues --  -93.98764 -93.98707 -93.98582 -84.37329 -84.33560
 Alpha  occ. eigenvalues --  -84.33539 -84.33497  -8.27097  -8.27033  -8.26853
 Alpha  occ. eigenvalues --   -6.83922  -6.80579  -6.80504  -6.80481  -6.24841
 Alpha  occ. eigenvalues --   -6.24778  -6.24664  -6.24602  -6.24598  -6.24436
 Alpha  occ. eigenvalues --   -6.24425  -6.24374  -6.24198  -4.35662  -4.35632
 Alpha  occ. eigenvalues --   -4.35327  -4.32794  -4.32407  -4.32389  -4.31966
 Alpha  occ. eigenvalues --   -4.31964  -4.31918  -4.31900  -4.31732  -4.31718
 Alpha  occ. eigenvalues --   -1.14256  -1.03222  -1.02786  -0.97384  -0.75907
 Alpha  occ. eigenvalues --   -0.72582  -0.72358  -0.55137  -0.54438  -0.54416
 Alpha  occ. eigenvalues --   -0.44657  -0.43322  -0.43144  -0.42625  -0.42266
 Alpha  occ. eigenvalues --   -0.38942  -0.35903  -0.32558  -0.32450
 Alpha virt. eigenvalues --    0.03759   0.05574   0.05599   0.05909   0.06655
 Alpha virt. eigenvalues --    0.06756   0.06771   0.08219   0.09413   0.10167
 Alpha virt. eigenvalues --    0.10183   0.11370   0.11413   0.11605   0.11769

 Mulliken charges:
               1
     1  S   -0.540732
     2  P    0.336410
     3  S   -0.558294
     4  S   -0.554451
     5  P    0.344162
     6  P    0.344867
     7  P    0.628037
 Sum of Mulliken charges =  -0.00000

 Dipole moment (field-independent basis, Debye):
    X=             -1.3231    Y=              0.0594    Z=             -0.0980  Tot=              1.3281

 Test job not archived.
 1\1\GINC-SE098\SP\RHF\Aug-CC-pVDZ\P4S3\OHZDE\09-Apr-2025\0\\#t hf aug-
 cc-pvdz iop(5/13=1,5/36=2,99/5=2) pseudo=read geom=check guess=(read,t
 check) scf=(maxcycle=1)\\title\\0,1\S,0,0.50054833,0.14050822,1.471853
 43\P,0,0.05515558,2.11691482,2.09003828\S,0,-2.56468744,-0.06224484,2.
 48684532\S,0,-0.11990107,-0.20040246,4.61301422\P,0,-0.37864246,1.8681
 4028,4.28551321\P,0,-2.07396232,1.96336821,2.80603144\P,0,-0.71514226,
 -1.04653296,2.76728951\\Version=ES64L-G16RevC.01\State=1-A\HF=-2556.02
 80887\RMSD=1.909e-02\Dipole=-0.0462222,0.5161139,0.0670373\Quadrupole=

 Normal termination of Gaussian 16 at Wed Apr  9 19:28:57 2025.
