 Gaussian 16, Revision C.01,

 ----------------------------------------------------------------------
 #t hf aug-cc-pvdz symm=none int=(grid=ultrafine) guess=(read,tcheck) s
 table=(opt,rrhf)
 ----------------------------------------------------------------------
 -----
 title
 -----
 Symbolic Z-matrix:
 Charge =  0 Multiplicity = 1

 SCF Done:  E(RHF) =  -797.391080006     A.U. after   11 cycles
 Normal termination of Gaussian 16 at Wed Apr  9 04:10:21 2025.
 Gaussian 16:  ES64L-G16RevC.01  3-Jul-2019

 ----------------------------------------------------------------------
 #t hf aug-cc-pvdz iop(5/13=1,5/36=2,99/5=2) pseudo=read geom=check gue
 ss=(read,tcheck) scf=(maxcycle=1)
 ----------------------------------------------------------------------
 -----
 title
 -----
 Structure from the checkpoint file:  "HB300SPXx10_1222_4.27_0.85_sulfane_sulfane_dimer_mol1.chk"
 Charge =  0 Multiplicity = 1

                         Standard orientation:
 ---------------------------------------------------------------------
 Center     Atomic      Atomic             Coordinates (Angstroms)
 Number     Number       Type             X           Y           Z
 ---------------------------------------------------------------------
      1          1           0       -0.531096   -0.080252   -0.107241
      2          1           0       -1.923183    1.263118    0.082220
      3         16           0       -1.872663   -0.074179   -0.003444
      4          1           0        1.745742    0.374572    1.219308
      5          1           0        1.949729    1.133738   -0.554157
      6         16           0        1.795088   -0.094020   -0.036564
 ---------------------------------------------------------------------

 SCF Done:  E(RHF) =  -797.518053031     A.U. after    2 cycles

 The electronic state is 1-A.
 Alpha  occ. eigenvalues --  -93.97850 -93.94548  -8.25971  -8.22704  -6.23833
 Alpha  occ. eigenvalues --   -6.23719  -6.23485  -6.20580  -6.20465  -6.20225
 Alpha  occ. eigenvalues --   -1.03814  -1.00383  -0.61246  -0.59082  -0.52413
 Alpha  occ. eigenvalues --   -0.50126  -0.40023  -0.37802
 Alpha virt. eigenvalues --    0.02971   0.05281   0.05627   0.06628   0.10734
 Alpha virt. eigenvalues --    0.11527   0.11729   0.13762   0.14507   0.15255
 Alpha virt. eigenvalues --    0.17820   0.19600   0.20583   0.23046   0.24486

 Mulliken charges:
               1
     1  H    0.406263
     2  H    0.245248
     3  S   -0.560466
     4  H    0.303847
     5  H    0.294408
     6  S   -0.689301
 Sum of Mulliken charges =  -0.00000

 Dipole moment (field-independent basis, Debye):
    X=              1.6211    Y=              1.8694    Z=              0.4416  Tot=              2.5135

 Test job not archived.
 1\1\GINC-SE419\SP\RHF\Aug-CC-pVDZ\H4S2\OHZDE\09-Apr-2025\0\\#t hf aug-
 cc-pvdz iop(5/13=1,5/36=2,99/5=2) pseudo=read geom=check guess=(read,t
 check) scf=(maxcycle=1)\\title\\0,1\H,0,0.53139832,0.64498716,-0.29055
 053\H,0,2.23879772,0.67266195,0.63813986\S,0,1.60273769,1.45777787,-0.
 24349168\H,0,-1.56352201,-0.2596858,1.10353221\H,0,-0.79555129,-1.7752
 4489,0.1673575\S,0,-1.41001587,-0.63329646,-0.17556034\\Version=ES64L-
 G16RevC.01\State=1-A\HF=-797.518053\RMSD=5.606e-03\Dipole=-0.2387388,-
 0.7453294,0.6044718\Quadrupole=-1.1901364,0.3098016,0.8803347,-1.99043

 Normal termination of Gaussian 16 at Wed Apr  9 04:10:22 2025.
