 Gaussian 16, Revision C.01,

 ----------------------------------------------------------------------
 #t hf aug-cc-pvdz symm=none int=(grid=ultrafine) guess=(read,tcheck) s
 table=(opt,rrhf)
 ----------------------------------------------------------------------
 -----
 title
 -----
 Symbolic Z-matrix:
 Charge =  0 Multiplicity = 1

 SCF Done:  E(RHF) =  -605.469342147     A.U. after   13 cycles
 Normal termination of Gaussian 16 at Wed Apr  9 19:25:48 2025.
 Gaussian 16:  ES64L-G16RevC.01  3-Jul-2019

 ----------------------------------------------------------------------
 #t hf aug-cc-pvdz iop(5/13=1,5/36=2,99/5=2) pseudo=read geom=check gue
 ss=(read,tcheck) scf=(maxcycle=1)
 ----------------------------------------------------------------------
 -----
 title
 -----
 Structure from the checkpoint file:  "HB300SPXx10_111_1.12_0.80_sulfane_methylcyanate_dimer_mol1.chk"
 Charge =  0 Multiplicity = 1

                         Standard orientation:
 ---------------------------------------------------------------------
 Center     Atomic      Atomic             Coordinates (Angstroms)
 Number     Number       Type             X           Y           Z
 ---------------------------------------------------------------------
      1          1           0        1.333829    0.854346    0.034259
      2          1           0        2.291594   -0.400149    1.168142
      3         16           0        1.966357   -0.320306   -0.130471
      4          1           0       -1.713397   -1.235844    1.311792
      5          1           0       -2.096778   -2.063719   -0.224902
      6          1           0       -0.403888   -1.604870    0.144537
      7          6           0       -1.451753   -1.343101    0.262371
      8          8           0       -1.711809   -0.079054   -0.426091
      9          6           0       -0.994327    0.913462   -0.052059
     10          7           0       -0.357444    1.826485    0.257223
 ---------------------------------------------------------------------

 SCF Done:  E(RHF) =  -605.737428001     A.U. after    2 cycles

 The electronic state is 1-A.
 Alpha  occ. eigenvalues --  -93.94878 -20.65071 -15.51473 -11.35502 -11.33515
 Alpha  occ. eigenvalues --   -8.23094  -6.20968  -6.20850  -6.20626  -1.57979
 Alpha  occ. eigenvalues --   -1.24599  -1.01720  -1.01014  -0.80611  -0.71500
 Alpha  occ. eigenvalues --   -0.70248  -0.63119  -0.60763  -0.59159  -0.57405
 Alpha  occ. eigenvalues --   -0.51469  -0.48794  -0.46403  -0.38432
 Alpha virt. eigenvalues --    0.02847   0.04238   0.04899   0.05677   0.07608
 Alpha virt. eigenvalues --    0.09032   0.10751   0.11192   0.11646   0.12983
 Alpha virt. eigenvalues --    0.14128   0.14697   0.14953   0.15377   0.16051

 Mulliken charges:
               1
     1  H    0.492848
     2  H    0.264896
     3  S   -0.730868
     4  H    0.161379
     5  H    0.047805
     6  H    0.217020
     7  C    0.318879
     8  O   -1.050444
     9  C   -0.484398
    10  N    0.762884
 Sum of Mulliken charges =  -0.00000

 Dipole moment (field-independent basis, Debye):
    X=             -2.1454    Y=             -4.0580    Z=              0.9987  Tot=              4.6976

 Test job not archived.
 1\1\GINC-SE125\SP\RHF\Aug-CC-pVDZ\C2H5N1O1S1\OHZDE\09-Apr-2025\0\\#t h
 f aug-cc-pvdz iop(5/13=1,5/36=2,99/5=2) pseudo=read geom=check guess=(
 read,tcheck) scf=(maxcycle=1)\\title\\0,1\H,0,1.70020261,0.23216325,0.
 14198181\H,0,1.83071194,2.07603691,0.74186388\S,0,1.65222468,0.8789214
 7,1.31945248\H,0,-2.04230345,1.26916957,-0.31060509\H,0,-2.72254087,0.
 30077428,1.02852635\H,0,-1.05152296,0.93853291,1.14627873\C,0,-1.82361
 414,0.55914879,0.48267335\O,0,-1.37056868,-0.69758313,-0.11297538\C,0,
 -0.265516,-0.63874727,-0.75730756\N,0,0.73277195,-0.62044369,-1.338663

 Normal termination of Gaussian 16 at Wed Apr  9 19:25:52 2025.
