 Gaussian 16, Revision C.01,

 ----------------------------------------------------------------------
 #t hf aug-cc-pvdz symm=none int=(grid=ultrafine) guess=(read,tcheck) s
 table=(opt,rrhf)
 ----------------------------------------------------------------------
 -----
 title
 -----
 Symbolic Z-matrix:
 Charge =  0 Multiplicity = 1

 SCF Done:  E(RHF) =  -215.886651006     A.U. after   13 cycles
 Normal termination of Gaussian 16 at Wed Apr  9 19:31:46 2025.
 Gaussian 16:  ES64L-G16RevC.01  3-Jul-2019

 ----------------------------------------------------------------------
 #t hf aug-cc-pvdz iop(5/13=1,5/36=2,99/5=2) pseudo=read geom=check gue
 ss=(read,tcheck) scf=(maxcycle=1)
 ----------------------------------------------------------------------
 -----
 title
 -----
 Structure from the checkpoint file:  "HB300SPXx10_1413_5.04_0.90_ethyne_methylfluoride_dimer_mol1.chk"
 Charge =  0 Multiplicity = 1

                         Standard orientation:
 ---------------------------------------------------------------------
 Center     Atomic      Atomic             Coordinates (Angstroms)
 Number     Number       Type             X           Y           Z
 ---------------------------------------------------------------------
      1          6           0        1.059548    1.133326    0.000000
      2          1           0        0.000000    1.033974    0.000000
      3          6           0        2.251929    1.229201    0.000000
      4          1           0        3.309163    1.321014    0.000000
      5          1           0       -1.392404   -2.024974    0.893893
      6          1           0       -1.392404   -2.024974   -0.893893
      7          1           0        0.041055   -1.440199    0.000000
      8          6           0       -1.044786   -1.511336    0.000000
      9          9           0       -1.573951   -0.219110    0.000000
 ---------------------------------------------------------------------

 SCF Done:  E(RHF) =  -216.104398400     A.U. after    2 cycles

 The electronic state is 1-A'.
 Alpha  occ. eigenvalues --  -26.45745 -11.32485 -11.24340 -11.23939  -1.57659
 Alpha  occ. eigenvalues --   -1.02907  -0.95930  -0.76684  -0.70744  -0.69306
 Alpha  occ. eigenvalues --   -0.67571  -0.66250  -0.53559  -0.53502  -0.41470
 Alpha  occ. eigenvalues --   -0.41418
 Alpha virt. eigenvalues --    0.03447   0.03964   0.05246   0.05553   0.06862
 Alpha virt. eigenvalues --    0.10918   0.11448   0.12324   0.12990   0.14392
 Alpha virt. eigenvalues --    0.14892   0.15886   0.17190   0.17430   0.18610

 Mulliken charges:
               1
     1  C    0.334796
     2  H   -0.138623
     3  C    0.096012
     4  H   -0.261988
     5  H    0.108033
     6  H    0.108033
     7  H    0.089417
     8  C    0.371016
     9  F   -0.706696
 Sum of Mulliken charges =   0.00000

 Dipole moment (field-independent basis, Debye):
    X=              0.4340    Y=             -1.9901    Z=              0.0000  Tot=              2.0368

 Test job not archived.
 1\1\GINC-SE220\SP\RHF\Aug-CC-pVDZ\C3H5F1\OHZDE\09-Apr-2025\0\\#t hf au
 g-cc-pvdz iop(5/13=1,5/36=2,99/5=2) pseudo=read geom=check guess=(read
 ,tcheck) scf=(maxcycle=1)\\title\\0,1\C,0,0.31595013,-1.6374503,0.\H,0
 ,0.81540337,-0.69773821,0.\C,0,-0.25942719,-2.68621438,0.\H,0,-0.76390
 634,-3.61984886,0.\H,0,-0.97447797,2.14695473,0.8938929\H,0,-0.9744779
 7,2.14695473,-0.8938929\H,0,-1.27397469,0.62805079,0.\C,0,-0.73649903,
 1.57421729,0.\F,0,0.63385592,1.30590355,0.\\Version=ES64L-G16RevC.01\S
 tate=1-A'\HF=-216.1043984\RMSD=2.044e-02\Dipole=-0.7478969,0.2877785,0

 Normal termination of Gaussian 16 at Wed Apr  9 19:31:48 2025.
