 Gaussian 16, Revision C.01,

 ----------------------------------------------------------------------
 #t hf aug-cc-pvdz symm=none int=(grid=ultrafine) guess=(read,tcheck) s
 table=(opt,rrhf)
 ----------------------------------------------------------------------
 -----
 title
 -----
 Symbolic Z-matrix:
 Charge =  0 Multiplicity = 1

 SCF Done:  E(RHF) =  -3015.76584216     A.U. after   14 cycles
 Normal termination of Gaussian 16 at Wed Apr  9 19:30:05 2025.
 Gaussian 16:  ES64L-G16RevC.01  3-Jul-2019

 ----------------------------------------------------------------------
 #t hf aug-cc-pvdz iop(5/13=1,5/36=2,99/5=2) pseudo=read geom=check gue
 ss=(read,tcheck) scf=(maxcycle=1)
 ----------------------------------------------------------------------
 -----
 title
 -----
 Structure from the checkpoint file:  "HB300SPXx10_1347_4.39_1.10_hydrogenchloride_P4S3_dimer_mol1.chk"
 Charge =  0 Multiplicity = 1

                         Standard orientation:
 ---------------------------------------------------------------------
 Center     Atomic      Atomic             Coordinates (Angstroms)
 Number     Number       Type             X           Y           Z
 ---------------------------------------------------------------------
      1          1           0       -2.809622   -0.474605   -0.479107
      2         17           0       -3.900903    0.005188    0.015759
      3         16           0       -0.326928   -0.721209   -1.584621
      4         15           0       -0.090232    1.321835   -1.091740
      5         16           0       -0.213545   -0.739553    1.647461
      6         16           0        2.525455   -0.649844   -0.079817
      7         15           0        1.897958    1.364083   -0.036190
      8         15           0       -0.012058    1.301612    1.157610
      9         15           0        0.695349   -1.710457    0.002510
 ---------------------------------------------------------------------

 SCF Done:  E(RHF) =  -3016.19929445     A.U. after    2 cycles

 The electronic state is 1-A.
 Alpha  occ. eigenvalues -- -105.57525 -93.99694 -93.99328 -93.99304 -84.37974
 Alpha  occ. eigenvalues --  -84.34161 -84.34106 -84.34069 -10.62275  -8.27950
 Alpha  occ. eigenvalues --   -8.27642  -8.27620  -7.79263  -7.78874  -7.78871
 Alpha  occ. eigenvalues --   -6.84564  -6.81152  -6.81066  -6.81034  -6.25695
 Alpha  occ. eigenvalues --   -6.25522  -6.25384  -6.25366  -6.25307  -6.25207
 Alpha  occ. eigenvalues --   -6.25190  -6.24980  -6.24962  -4.36317  -4.36296
 Alpha  occ. eigenvalues --   -4.35976  -4.33395  -4.32999  -4.32952  -4.32569
 Alpha  occ. eigenvalues --   -4.32538  -4.32483  -4.32463  -4.32335  -4.32285
 Alpha  occ. eigenvalues --   -1.15022  -1.06521  -1.03804  -1.03733  -0.97988
 Alpha  occ. eigenvalues --   -0.76603  -0.73107  -0.73079  -0.62555  -0.55810
 Alpha  occ. eigenvalues --   -0.55193  -0.55102  -0.47950  -0.47877  -0.45205
 Alpha  occ. eigenvalues --   -0.43890  -0.43876  -0.43278  -0.43033  -0.39820
 Alpha  occ. eigenvalues --   -0.36424  -0.33120  -0.33054
 Alpha virt. eigenvalues --    0.03289   0.05260   0.05344   0.05485   0.05788
 Alpha virt. eigenvalues --    0.06294   0.06485   0.07614   0.08415   0.09000
 Alpha virt. eigenvalues --    0.10106   0.10347   0.10901   0.10996   0.11264

 Mulliken charges:
               1
     1  H    0.209825
     2  Cl  -0.175324
     3  S   -0.646795
     4  P    0.353855
     5  S   -0.571735
     6  S   -0.563096
     7  P    0.391135
     8  P    0.375598
     9  P    0.626538
 Sum of Mulliken charges =  -0.00000

 Dipole moment (field-independent basis, Debye):
    X=              1.6103    Y=              1.0304    Z=             -0.2176  Tot=              1.9241

 Test job not archived.
 1\1\GINC-SE116\SP\RHF\Aug-CC-pVDZ\Cl1H1P4S3\OHZDE\09-Apr-2025\0\\#t hf
  aug-cc-pvdz iop(5/13=1,5/36=2,99/5=2) pseudo=read geom=check guess=(r
 ead,tcheck) scf=(maxcycle=1)\\title\\0,1\H,0,-0.57388532,0.23171594,-0
 .00983813\Cl,0,-1.31085335,0.72448843,-0.94794305\S,0,1.05092099,-0.04
 67332,2.16483794\P,0,0.5438991,1.96227319,2.58887854\S,0,-2.07708017,-
 0.21812737,2.9684416\S,0,0.19701587,-0.14069554,5.27412033\P,0,-0.0575
 0962,1.88898769,4.75724411\P,0,-1.63289217,1.83557185,3.14710753\P,0,-
 0.23893971,-1.14197247,3.46073858\\Version=ES64L-G16RevC.01\State=1-A\

 Normal termination of Gaussian 16 at Wed Apr  9 19:30:12 2025.
