 Gaussian 16, Revision C.01,

 ----------------------------------------------------------------------
 #t hf aug-cc-pvdz symm=none int=(grid=ultrafine) guess=(read,tcheck) s
 table=(opt,rrhf)
 ----------------------------------------------------------------------
 -----
 title
 -----
 Symbolic Z-matrix:
 Charge =  0 Multiplicity = 1

 SCF Done:  E(RHF) =  -648.913453880     A.U. after   12 cycles
 Normal termination of Gaussian 16 at Wed Apr  9 19:25:36 2025.
 Gaussian 16:  ES64L-G16RevC.01  3-Jul-2019

 ----------------------------------------------------------------------
 #t hf aug-cc-pvdz iop(5/13=1,5/36=2,99/5=2) pseudo=read geom=check gue
 ss=(read,tcheck) scf=(maxcycle=1)
 ----------------------------------------------------------------------
 -----
 title
 -----
 Structure from the checkpoint file:  "HB300SPXx10_1085_4.12_1.00_methylamine_tetrahydrothiophene_dimer_mol1.chk"
 Charge =  0 Multiplicity = 1

                         Standard orientation:
 ---------------------------------------------------------------------
 Center     Atomic      Atomic             Coordinates (Angstroms)
 Number     Number       Type             X           Y           Z
 ---------------------------------------------------------------------
      1          7           0       -2.283844   -0.270909   -0.824096
      2          1           0       -1.565150   -0.864454   -0.423186
      3          1           0       -2.839661   -0.848813   -1.440246
      4          6           0       -3.116092    0.304603    0.231077
      5          1           0       -3.895194    0.922422   -0.214441
      6          1           0       -3.599913   -0.426761    0.889084
      7          1           0       -2.506048    0.958160    0.854763
      8          1           0        1.501984    0.559532    2.021748
      9          1           0       -0.254903    0.429208    1.898775
     10          1           0        0.955526    2.440967    0.597548
     11          1           0        0.508713   -0.576933   -1.793210
     12          1           0       -0.295371    1.521305   -0.246259
     13          1           0        2.185793   -1.068449   -1.499524
     14          1           0        1.656440    1.547816   -1.744845
     15          1           0        2.709319    1.028524   -0.429534
     16         16           0        0.855054   -1.221929    0.515680
     17          6           0        0.672328    0.418365    1.331869
     18          6           0        0.691532    1.456274    0.210987
     19          6           0        1.695728    0.959437   -0.828032
     20          6           0        1.347258   -0.501228   -1.104716
 ---------------------------------------------------------------------

 SCF Done:  E(RHF) =  -649.254425020     A.U. after    2 cycles

 The electronic state is 1-A.
 Alpha  occ. eigenvalues --  -93.93042 -15.47342 -11.26047 -11.25828 -11.24831
 Alpha  occ. eigenvalues --  -11.23689 -11.23391  -8.21163  -6.18965  -6.18848
 Alpha  occ. eigenvalues --   -6.18626  -1.16506  -1.13544  -0.98785  -0.98173
 Alpha  occ. eigenvalues --   -0.90185  -0.79664  -0.79455  -0.69169  -0.66028
 Alpha  occ. eigenvalues --   -0.64761  -0.62532  -0.60517  -0.57694  -0.55372
 Alpha  occ. eigenvalues --   -0.52880  -0.51217  -0.49897  -0.48441  -0.48419
 Alpha  occ. eigenvalues --   -0.43005  -0.42078  -0.34086
 Alpha virt. eigenvalues --    0.03579   0.03732   0.03856   0.04250   0.05711
 Alpha virt. eigenvalues --    0.05786   0.05827   0.06724   0.07549   0.08374
 Alpha virt. eigenvalues --    0.08884   0.09549   0.10439   0.11796   0.13411

 Mulliken charges:
               1
     1  N    0.049311
     2  H    0.007667
     3  H    0.230760
     4  C   -0.414151
     5  H    0.076003
     6  H    0.093971
     7  H    0.027523
     8  H    0.133904
     9  H    0.142204
    10  H    0.149890
    11  H    0.140148
    12  H    0.175095
    13  H    0.151172
    14  H    0.128065
    15  H    0.097577
    16  S    0.387711
    17  C   -0.598052
    18  C   -0.225755
    19  C   -0.301327
    20  C   -0.451716
 Sum of Mulliken charges =  -0.00000

 Dipole moment (field-independent basis, Debye):
    X=             -0.1810    Y=              1.1308    Z=             -0.1165  Tot=              1.1511

 Test job not archived.
 1\1\GINC-SE138\SP\RHF\Aug-CC-pVDZ\C5H13N1S1\OHZDE\09-Apr-2025\0\\#t hf
  aug-cc-pvdz iop(5/13=1,5/36=2,99/5=2) pseudo=read geom=check guess=(r
 ead,tcheck) scf=(maxcycle=1)\\title\\0,1\N,0,-0.48023551,2.04199658,1.
 33183501\H,0,-0.98136805,1.22913012,0.98881982\H,0,-1.14375731,2.80345
 765,1.38144373\C,0,0.08991425,1.76981847,2.65020044\H,0,0.60698078,2.6
 5693888,3.01468146\H,0,-0.63523497,1.46399211,3.41346792\H,0,0.8338340
 5,0.97768014,2.5643137\H,0,0.86214648,-2.40340209,0.08387841\H,0,0.572
 32441,-1.26079245,1.39887161\H,0,2.5903762,-0.74933304,-0.29564289\H,0

 Normal termination of Gaussian 16 at Wed Apr  9 19:25:45 2025.
