 Gaussian 16, Revision C.01,

 ----------------------------------------------------------------------
 #t hf aug-cc-pvdz symm=none int=(grid=ultrafine) guess=(read,tcheck) s
 table=(opt,rrhf)
 ----------------------------------------------------------------------
 -----
 title
 -----
 Symbolic Z-matrix:
 Charge =  0 Multiplicity = 1

 SCF Done:  E(RHF) =  -576.782078439     A.U. after   12 cycles
 Normal termination of Gaussian 16 at Wed Apr  9 19:31:48 2025.
 Gaussian 16:  ES64L-G16RevC.01  3-Jul-2019

 ----------------------------------------------------------------------
 #t hf aug-cc-pvdz iop(5/13=1,5/36=2,99/5=2) pseudo=read geom=check gue
 ss=(read,tcheck) scf=(maxcycle=1)
 ----------------------------------------------------------------------
 -----
 title
 -----
 Structure from the checkpoint file:  "HB300SPXx10_1431_5.06_0.80_methanethiol_methylfluoride_dimer_mol1.chk"
 Charge =  0 Multiplicity = 1

                         Standard orientation:
 ---------------------------------------------------------------------
 Center     Atomic      Atomic             Coordinates (Angstroms)
 Number     Number       Type             X           Y           Z
 ---------------------------------------------------------------------
      1          1           0        1.603656    1.744523   -0.504668
      2          1           0        1.520517    1.362892    1.220206
      3          1           0        0.036836    1.360060    0.248747
      4          1           0        0.702012   -0.724164   -1.195796
      5          6           0        1.099435    1.139873    0.243403
      6         16           0        1.388614   -0.636741   -0.047106
      7          1           0       -1.070515   -0.825008    0.886222
      8          1           0       -2.592969    0.076465    1.166435
      9          1           0       -2.546562   -1.247207   -0.031503
     10          6           0       -1.980225   -0.440301    0.429943
     11          9           0       -1.620673    0.471430   -0.564002
 ---------------------------------------------------------------------

 SCF Done:  E(RHF) =  -577.026641869     A.U. after    2 cycles

 The electronic state is 1-A.
 Alpha  occ. eigenvalues --  -93.94257 -26.44917 -11.31570 -11.25732  -8.22374
 Alpha  occ. eigenvalues --   -6.20231  -6.20086  -6.19862  -1.56953  -1.05551
 Alpha  occ. eigenvalues --   -0.95232  -0.87927  -0.69652  -0.68714  -0.66566
 Alpha  occ. eigenvalues --   -0.60776  -0.58424  -0.53200  -0.52882  -0.52511
 Alpha  occ. eigenvalues --   -0.46188  -0.35982
 Alpha virt. eigenvalues --    0.03616   0.03957   0.04685   0.05425   0.06864
 Alpha virt. eigenvalues --    0.07813   0.08478   0.10996   0.11817   0.13643
 Alpha virt. eigenvalues --    0.14716   0.15232   0.15541   0.16397   0.17454

 Mulliken charges:
               1
     1  H    0.109563
     2  H    0.182950
     3  H    0.165328
     4  H    0.387307
     5  C   -0.635946
     6  S   -0.232153
     7  H    0.167298
     8  H    0.136296
     9  H    0.080666
    10  C    0.366217
    11  F   -0.727527
 Sum of Mulliken charges =  -0.00000

 Dipole moment (field-independent basis, Debye):
    X=             -1.3895    Y=              0.2793    Z=              0.8041  Tot=              1.6295

 Test job not archived.
 1\1\GINC-SE083\SP\RHF\Aug-CC-pVDZ\C2H7F1S1\OHZDE\09-Apr-2025\0\\#t hf
 aug-cc-pvdz iop(5/13=1,5/36=2,99/5=2) pseudo=read geom=check guess=(re
 ad,tcheck) scf=(maxcycle=1)\\title\\0,1\H,0,2.08229041,-1.4254109,-0.5
 8197167\H,0,2.56243491,-0.07269824,0.45116733\H,0,1.30281242,0.1638302
 2,-0.77457926\H,0,-0.45614858,-1.39442223,0.38777169\C,0,1.72720839,-0
 .53887394,-0.06484534\S,0,0.50833702,-0.97408013,1.21941614\H,0,-0.538
 99674,1.33803557,0.50452271\H,0,-0.61165396,2.55957789,-0.80375584\H,0
 ,-2.06326984,1.60397142,-0.39272759\C,0,-0.97680389,1.59414755,-0.4580

 Normal termination of Gaussian 16 at Wed Apr  9 19:31:51 2025.
