 Gaussian 16, Revision C.01,

 ----------------------------------------------------------------------
 #t hf aug-cc-pvdz symm=none int=(grid=ultrafine) guess=(read,tcheck) s
 table=(opt,rrhf)
 ----------------------------------------------------------------------
 -----
 title
 -----
 Symbolic Z-matrix:
 Charge =  0 Multiplicity = 1

 SCF Done:  E(RHF) =  -552.794309717     A.U. after   12 cycles
 Normal termination of Gaussian 16 at Wed Apr  9 19:27:46 2025.
 Gaussian 16:  ES64L-G16RevC.01  3-Jul-2019

 ----------------------------------------------------------------------
 #t hf aug-cc-pvdz iop(5/13=1,5/36=2,99/5=2) pseudo=read geom=check gue
 ss=(read,tcheck) scf=(maxcycle=1)
 ----------------------------------------------------------------------
 -----
 title
 -----
 Structure from the checkpoint file:  "HB300SPXx10_1155_4.20_1.00_methanol_methanethiol_dimer_mol1.chk"
 Charge =  0 Multiplicity = 1

                         Standard orientation:
 ---------------------------------------------------------------------
 Center     Atomic      Atomic             Coordinates (Angstroms)
 Number     Number       Type             X           Y           Z
 ---------------------------------------------------------------------
      1          8           0       -1.727204   -0.291424    0.704364
      2          1           0       -0.883549   -0.666162    0.418170
      3          6           0       -2.422885    0.160187   -0.444453
      4          1           0       -3.352808    0.610692   -0.104076
      5          1           0       -1.857321    0.917324   -0.997605
      6          1           0       -2.665850   -0.658936   -1.127508
      7          1           0        0.517018    1.378084    0.829553
      8          1           0        1.094751    1.660570   -0.819223
      9          1           0        2.264270    1.583928    0.503859
     10          1           0        1.787943   -0.990575    1.025134
     11          6           0        1.325543    1.186475    0.130974
     12         16           0        1.468577   -0.598969   -0.217647
 ---------------------------------------------------------------------

 SCF Done:  E(RHF) =  -553.024293531     A.U. after    2 cycles

 The electronic state is 1-A.
 Alpha  occ. eigenvalues --  -93.96243 -20.53297 -11.27569 -11.27448  -8.24330
 Alpha  occ. eigenvalues --   -6.22185  -6.22038  -6.21824  -1.43226  -1.07311
 Alpha  occ. eigenvalues --   -0.92097  -0.89595  -0.68356  -0.62598  -0.61891
 Alpha  occ. eigenvalues --   -0.60269  -0.58597  -0.54681  -0.49565  -0.47875
 Alpha  occ. eigenvalues --   -0.43276  -0.37995
 Alpha virt. eigenvalues --    0.03452   0.04050   0.04499   0.05189   0.06318
 Alpha virt. eigenvalues --    0.07514   0.07829   0.10095   0.10263   0.11540
 Alpha virt. eigenvalues --    0.13382   0.14647   0.14964   0.15881   0.16388

 Mulliken charges:
               1
     1  O   -1.106114
     2  H    0.564272
     3  C    0.426185
     4  H    0.007133
     5  H    0.089115
     6  H    0.092851
     7  H    0.108482
     8  H    0.219020
     9  H    0.085696
    10  H    0.357225
    11  C   -0.597471
    12  S   -0.246395
 Sum of Mulliken charges =  -0.00000

 Dipole moment (field-independent basis, Debye):
    X=              1.1200    Y=              1.2785    Z=             -0.4937  Tot=              1.7700

 Test job not archived.
 1\1\GINC-SE115\SP\RHF\Aug-CC-pVDZ\C2H8O1S1\OHZDE\09-Apr-2025\0\\#t hf
 aug-cc-pvdz iop(5/13=1,5/36=2,99/5=2) pseudo=read geom=check guess=(re
 ad,tcheck) scf=(maxcycle=1)\\title\\0,1\O,0,-1.11765515,0.11430785,-1.
 55067005\H,0,-0.42321658,-0.33845143,-1.05382579\C,0,-0.58571066,1.330
 64039,-2.0459227\H,0,-1.38742324,1.84483596,-2.57168664\H,0,-0.2297527
 6,1.98264255,-1.24138273\H,0,0.23685112,1.16511886,-2.74774471\H,0,-1.
 10693622,0.45902118,1.22791297\H,0,0.36788412,1.32836546,1.67644468\H,
 0,-0.29515464,0.12337662,2.78665966\H,0,0.15180429,-1.92218621,1.13058

 Normal termination of Gaussian 16 at Wed Apr  9 19:27:49 2025.
