 Gaussian 16, Revision C.01,

 ----------------------------------------------------------------------
 #t hf aug-cc-pvdz symm=none int=(grid=ultrafine) guess=(read,tcheck) s
 table=(opt,rrhf)
 ----------------------------------------------------------------------
 -----
 title
 -----
 Symbolic Z-matrix:
 Charge =  0 Multiplicity = 1

 SCF Done:  E(RHF) =  -1334.39621342     A.U. after   13 cycles
 Normal termination of Gaussian 16 at Wed Apr  9 19:28:51 2025.
 Gaussian 16:  ES64L-G16RevC.01  3-Jul-2019

 ----------------------------------------------------------------------
 #t hf aug-cc-pvdz iop(5/13=1,5/36=2,99/5=2) pseudo=read geom=check gue
 ss=(read,tcheck) scf=(maxcycle=1)
 ----------------------------------------------------------------------
 -----
 title
 -----
 Structure from the checkpoint file:  "HB300SPXx10_1315_4.36_1.00_hydrogenchloride_dimethyldisulfide_dimer_mol1.chk"
 Charge =  0 Multiplicity = 1

                         Standard orientation:
 ---------------------------------------------------------------------
 Center     Atomic      Atomic             Coordinates (Angstroms)
 Number     Number       Type             X           Y           Z
 ---------------------------------------------------------------------
      1          1           0       -1.792369   -0.197114    0.378343
      2         17           0       -2.965559   -0.528273   -0.089387
      3          1           0        3.533632   -1.284656   -0.546523
      4          1           0        3.291225   -0.298927    0.911411
      5          1           0        3.169680    0.442762   -0.707740
      6          1           0       -0.571631    1.388916   -1.410829
      7          1           0        0.974829    2.194256   -1.019263
      8          1           0       -0.518255    2.680805   -0.191109
      9          6           0        2.980833   -0.449803   -0.118086
     10         16           0        1.225458   -0.924449   -0.192064
     11         16           0        0.292682    0.655249    0.727711
     12          6           0        0.025360    1.843436   -0.626092
 ---------------------------------------------------------------------

 SCF Done:  E(RHF) =  -1334.68774461     A.U. after    2 cycles

 The electronic state is 1-A.
 Alpha  occ. eigenvalues -- -105.55639 -93.98715 -93.98069 -11.28114 -11.28033
 Alpha  occ. eigenvalues --  -10.60423  -8.26712  -8.26079  -7.77396  -7.77035
 Alpha  occ. eigenvalues --   -7.77034  -6.24512  -6.24303  -6.24110  -6.23885
 Alpha  occ. eigenvalues --   -6.23670  -6.23440  -1.13405  -1.04940  -1.03763
 Alpha  occ. eigenvalues --   -0.93278  -0.82439  -0.63716  -0.62660  -0.61733
 Alpha  occ. eigenvalues --   -0.60122  -0.59844  -0.55425  -0.51472  -0.46298
 Alpha  occ. eigenvalues --   -0.46264  -0.46245  -0.38295  -0.37235
 Alpha virt. eigenvalues --    0.03058   0.03707   0.04652   0.05214   0.06473
 Alpha virt. eigenvalues --    0.06966   0.07946   0.08873   0.09718   0.11972
 Alpha virt. eigenvalues --    0.13171   0.13815   0.13914   0.14578   0.15095

 Mulliken charges:
               1
     1  H    0.356911
     2  Cl  -0.207227
     3  H    0.170086
     4  H    0.227227
     5  H    0.188852
     6  H    0.150640
     7  H    0.149725
     8  H    0.207923
     9  C   -0.750841
    10  S    0.208731
    11  S   -0.119926
    12  C   -0.582101
 Sum of Mulliken charges =  -0.00000

 Dipole moment (field-independent basis, Debye):
    X=              3.6271    Y=              2.0233    Z=             -0.7038  Tot=              4.2125

 Test job not archived.
 1\1\GINC-SE118\SP\RHF\Aug-CC-pVDZ\C2H7Cl1S2\OHZDE\09-Apr-2025\0\\#t hf
  aug-cc-pvdz iop(5/13=1,5/36=2,99/5=2) pseudo=read geom=check guess=(r
 ead,tcheck) scf=(maxcycle=1)\\title\\0,1\H,0,-0.26068265,0.62653872,-1
 .61580209\Cl,0,0.10581098,1.51670262,-2.49790267\H,0,1.80887421,-2.024
 13598,2.75401213\H,0,0.21053562,-2.64273185,2.28641366\H,0,0.35574905,
 -1.09607564,3.16578335\H,0,-0.58736917,1.84862411,0.75202693\H,0,-1.27
 681916,0.97363882,2.14934462\H,0,-2.29399121,1.35170937,0.74424939\C,0
 ,0.80881751,-1.74705506,2.42350231\S,0,1.03045102,-0.87931107,0.839203

 Normal termination of Gaussian 16 at Wed Apr  9 19:28:55 2025.
