 Gaussian 16, Revision C.01,

 ----------------------------------------------------------------------
 #t hf aug-cc-pvdz symm=none int=(grid=ultrafine) guess=(read,tcheck) s
 table=(opt,rrhf)
 ----------------------------------------------------------------------
 -----
 title
 -----
 Symbolic Z-matrix:
 Charge =  0 Multiplicity = 1

 SCF Done:  E(RHF) =  -936.857857515     A.U. after   12 cycles
 Normal termination of Gaussian 16 at Wed Apr  9 19:29:47 2025.
 Gaussian 16:  ES64L-G16RevC.01  3-Jul-2019

 ----------------------------------------------------------------------
 #t hf aug-cc-pvdz iop(5/13=1,5/36=2,99/5=2) pseudo=read geom=check gue
 ss=(read,tcheck) scf=(maxcycle=1)
 ----------------------------------------------------------------------
 -----
 title
 -----
 Structure from the checkpoint file:  "HB300SPXx10_1324_4.37_0.95_hydrogenchloride_dimethylsulfide_dimer_mol1.chk"
 Charge =  0 Multiplicity = 1

                         Standard orientation:
 ---------------------------------------------------------------------
 Center     Atomic      Atomic             Coordinates (Angstroms)
 Number     Number       Type             X           Y           Z
 ---------------------------------------------------------------------
      1          1           0       -0.975293   -0.000003   -0.442785
      2         17           0       -2.207770   -0.000002    0.041619
      3          1           0        0.389208   -1.354202    1.230276
      4          1           0        2.159330   -1.365703    0.999826
      5          1           0        1.112074   -2.299390   -0.083238
      6          1           0        1.112063    2.299393   -0.083240
      7          1           0        2.159320    1.365710    0.999829
      8          1           0        0.389197    1.354203    1.230273
      9          6           0        1.194163   -1.385386    0.499039
     10         16           0        1.053518    0.000001   -0.659183
     11          6           0        1.194155    1.385388    0.499038
 ---------------------------------------------------------------------

 SCF Done:  E(RHF) =  -937.089935995     A.U. after    2 cycles

 The electronic state is 1-A.
 Alpha  occ. eigenvalues -- -105.54478 -93.96607 -11.27760 -11.27731 -10.59310
 Alpha  occ. eigenvalues --   -8.24760  -7.76267  -7.75935  -7.75934  -6.22571
 Alpha  occ. eigenvalues --   -6.22416  -6.22239  -1.11118  -1.03602  -0.97699
 Alpha  occ. eigenvalues --   -0.84887  -0.64752  -0.62833  -0.60420  -0.59092
 Alpha  occ. eigenvalues --   -0.58996  -0.52430  -0.46520  -0.45507  -0.45502
 Alpha  occ. eigenvalues --   -0.36991
 Alpha virt. eigenvalues --    0.03260   0.03729   0.04740   0.05424   0.06882
 Alpha virt. eigenvalues --    0.07630   0.07983   0.09571   0.12503   0.12597
 Alpha virt. eigenvalues --    0.14994   0.15260   0.15314   0.16095   0.16698

 Mulliken charges:
               1
     1  H    0.469195
     2  Cl  -0.273616
     3  H    0.117003
     4  H    0.170518
     5  H    0.158516
     6  H    0.158517
     7  H    0.170518
     8  H    0.117004
     9  C   -0.536360
    10  S   -0.014933
    11  C   -0.536361
 Sum of Mulliken charges =  -0.00000

 Dipole moment (field-independent basis, Debye):
    X=              2.9824    Y=              0.0000    Z=              1.2456  Tot=              3.2320

 Test job not archived.
 1\1\GINC-SE138\SP\RHF\Aug-CC-pVDZ\C2H7Cl1S1\OHZDE\09-Apr-2025\0\\#t hf
  aug-cc-pvdz iop(5/13=1,5/36=2,99/5=2) pseudo=read geom=check guess=(r
 ead,tcheck) scf=(maxcycle=1)\\title\\0,1\H,0,-0.09169332,-0.01707414,-
 1.03147385\Cl,0,0.64323048,-0.44620369,-2.04605842\H,0,1.59105598,0.76
 467109,0.71554786\H,0,0.93909262,1.20112673,2.31898832\H,0,0.70038629,
 2.28129824,0.9341439\H,0,-1.35229532,-1.82632494,1.18461364\H,0,-0.280
 0781,-1.23856813,2.46775079\H,0,0.38215018,-1.65447049,0.86305405\C,0,
 0.76971967,1.24234292,1.24551876\S,0,-0.8039477,0.45188257,0.82208423\

 Normal termination of Gaussian 16 at Wed Apr  9 19:29:50 2025.
