 Gaussian 16, Revision C.01,

 ----------------------------------------------------------------------
 #t hf aug-cc-pvdz symm=none int=(grid=ultrafine) guess=(read,tcheck) s
 table=(opt,rrhf)
 ----------------------------------------------------------------------
 -----
 title
 -----
 Symbolic Z-matrix:
 Charge =  0 Multiplicity = 1

 SCF Done:  E(RHF) =  -1166.69254179     A.U. after   13 cycles
 Normal termination of Gaussian 16 at Wed Apr  9 19:31:29 2025.
 Gaussian 16:  ES64L-G16RevC.01  3-Jul-2019

 ----------------------------------------------------------------------
 #t hf aug-cc-pvdz iop(5/13=1,5/36=2,99/5=2) pseudo=read geom=check gue
 ss=(read,tcheck) scf=(maxcycle=1)
 ----------------------------------------------------------------------
 -----
 title
 -----
 Structure from the checkpoint file:  "HB300SPXx10_1391_5.02_0.80_dimethylsulfone_phosphineF2_dimer_mol1.chk"
 Charge =  0 Multiplicity = 1

                         Standard orientation:
 ---------------------------------------------------------------------
 Center     Atomic      Atomic             Coordinates (Angstroms)
 Number     Number       Type             X           Y           Z
 ---------------------------------------------------------------------
      1          1           0        2.122039    0.477649    2.076030
      2          1           0        1.377543   -1.140841    2.003929
      3          1           0        0.341425    0.309007    1.903465
      4          1           0        0.330340    1.873220   -0.338366
      5          1           0        1.413674    1.510139   -1.710351
      6          1           0        2.106786    2.110465   -0.182309
      7          8           0        2.831987   -0.613689   -0.419440
      8         16           0        1.494036   -0.180321   -0.113610
      9          8           0        0.372773   -0.925246   -0.647512
     10          6           0        1.311508   -0.112261    1.658292
     11          6           0        1.314033    1.516471   -0.627721
     12         15           0       -1.880447   -0.438451   -0.057502
     13          9           0       -3.446442   -0.087204   -0.035112
     14          9           0       -1.337253    1.029809    0.339742
     15          1           0       -1.727746   -0.274955   -1.461581
 ---------------------------------------------------------------------

 SCF Done:  E(RHF) =  -1167.21787973     A.U. after    2 cycles

 The electronic state is 1-A.
 Alpha  occ. eigenvalues --  -94.20272 -84.39434 -26.48367 -26.45868 -20.55400
 Alpha  occ. eigenvalues --  -20.54351 -11.29491 -11.28926  -8.45785  -6.85062
 Alpha  occ. eigenvalues --   -6.43911  -6.43660  -6.43579  -4.37898  -4.37307
 Alpha  occ. eigenvalues --   -4.36218  -1.61900  -1.57897  -1.56745  -1.45805
 Alpha  occ. eigenvalues --   -1.10771  -1.02775  -0.88262  -0.84683  -0.72841
 Alpha  occ. eigenvalues --   -0.71458  -0.70836  -0.70066  -0.69591  -0.67373
 Alpha  occ. eigenvalues --   -0.64550  -0.63519  -0.62466  -0.62387  -0.60070
 Alpha  occ. eigenvalues --   -0.59318  -0.56001  -0.51408  -0.50990  -0.47617
 Alpha  occ. eigenvalues --   -0.45570  -0.36233
 Alpha virt. eigenvalues --    0.02821   0.03882   0.04519   0.05201   0.06374
 Alpha virt. eigenvalues --    0.06639   0.07229   0.09374   0.09466   0.10783
 Alpha virt. eigenvalues --    0.12645   0.13625   0.13990   0.14337   0.14947

 Mulliken charges:
               1
     1  H    0.208705
     2  H    0.266964
     3  H    0.219276
     4  H    0.227989
     5  H    0.246757
     6  H    0.209918
     7  O   -1.486672
     8  S    3.007771
     9  O   -1.510537
    10  C   -0.641573
    11  C   -0.598833
    12  P    1.501368
    13  F   -0.790604
    14  F   -0.919235
    15  H    0.058708
 Sum of Mulliken charges =  -0.00000

 Dipole moment (field-independent basis, Debye):
    X=              1.2233    Y=              2.8239    Z=              1.8374  Tot=              3.5843

 Test job not archived.
 1\1\GINC-SE115\SP\RHF\Aug-CC-pVDZ\C2H7F2O2P1S1\OHZDE\09-Apr-2025\0\\#t
  hf aug-cc-pvdz iop(5/13=1,5/36=2,99/5=2) pseudo=read geom=check guess
 =(read,tcheck) scf=(maxcycle=1)\\title\\0,1\H,0,1.82037896,-1.1252997,
 2.45423408\H,0,2.45327614,-0.04590354,1.18406648\H,0,1.26048817,-1.302
 78481,0.75605091\H,0,-1.35656486,-1.06874241,1.510339\H,0,-1.8999986,0
 .31018714,2.5058364\H,0,-0.84910966,-0.93302114,3.2309401\O,0,0.704774
 22,1.412934,2.93921594\S,0,0.30796869,0.58975017,1.82729483\O,0,-0.016
 49706,1.22000253,0.56448154\C,0,1.58998555,-0.61149627,1.52558836\C,0,

 Normal termination of Gaussian 16 at Wed Apr  9 19:31:35 2025.
