 Gaussian 16, Revision C.01,

 ----------------------------------------------------------------------
 #t hf aug-cc-pvdz symm=none int=(grid=ultrafine) guess=(read,tcheck) s
 table=(opt,rrhf)
 ----------------------------------------------------------------------
 -----
 title
 -----
 Symbolic Z-matrix:
 Charge =  0 Multiplicity = 1

 SCF Done:  E(RHF) =  -1037.70215304     A.U. after   14 cycles
 Normal termination of Gaussian 16 at Wed Apr  9 19:34:50 2025.
 Gaussian 16:  ES64L-G16RevC.01  3-Jul-2019

 ----------------------------------------------------------------------
 #t hf aug-cc-pvdz iop(5/13=1,5/36=2,99/5=2) pseudo=read geom=check gue
 ss=(read,tcheck) scf=(maxcycle=1)
 ----------------------------------------------------------------------
 -----
 title
 -----
 Structure from the checkpoint file:  "HB300SPXx10_1478_5.10_1.25_phosphaalkene_phosphineF2_dimer_mol1.chk"
 Charge =  0 Multiplicity = 1

                         Standard orientation:
 ---------------------------------------------------------------------
 Center     Atomic      Atomic             Coordinates (Angstroms)
 Number     Number       Type             X           Y           Z
 ---------------------------------------------------------------------
      1          1           0       -2.192983   -2.869705   -0.575710
      2          1           0       -1.118517   -2.215770    0.661866
      3          1           0       -2.868086   -1.953130    0.770675
      4          1           0       -1.508100    2.167604   -1.515734
      5          1           0       -0.625558    1.139520    1.984796
      6          1           0       -2.251379    2.797617   -0.040948
      7          1           0       -0.509062    2.585232   -0.116248
      8          1           0       -1.598674   -0.332194    2.005115
      9          1           0       -2.371074    1.255829    2.056963
     10         15           0       -1.859689   -0.498173   -0.959758
     11          6           0       -1.608624    0.759993    0.127397
     12          6           0       -1.460839    2.149694   -0.428390
     13          6           0       -1.548711    0.681286    1.621542
     14          6           0       -2.022951   -2.023247    0.087164
     15         15           0        2.116295    0.250722   -0.217867
     16          9           0        3.703063    0.022660   -0.265750
     17          9           0        1.765179   -0.881144    0.860630
     18          1           0        1.826902   -0.543237   -1.366595
 ---------------------------------------------------------------------

 SCF Done:  E(RHF) =  -1038.14115536     A.U. after    2 cycles

 The electronic state is 1-A.
 Alpha  occ. eigenvalues --  -84.41363 -84.25394 -26.48470 -26.48217 -11.27360
 Alpha  occ. eigenvalues --  -11.24319 -11.24058 -11.23327  -6.87013  -6.72723
 Alpha  occ. eigenvalues --   -4.39840  -4.39202  -4.38193  -4.25656  -4.24744
 Alpha  occ. eigenvalues --   -4.24128  -1.62507  -1.57954  -1.09016  -0.97993
 Alpha  occ. eigenvalues --   -0.95531  -0.88496  -0.84703  -0.71257  -0.71070
 Alpha  occ. eigenvalues --   -0.69451  -0.68910  -0.65079  -0.62264  -0.61284
 Alpha  occ. eigenvalues --   -0.61019  -0.59811  -0.58007  -0.57397  -0.55642
 Alpha  occ. eigenvalues --   -0.55485  -0.52419  -0.46745  -0.38799  -0.35005
 Alpha  occ. eigenvalues --   -0.31509
 Alpha virt. eigenvalues --    0.03575   0.03916   0.04239   0.04506   0.05819
 Alpha virt. eigenvalues --    0.06209   0.06577   0.06931   0.07667   0.08234
 Alpha virt. eigenvalues --    0.09468   0.09698   0.10388   0.11186   0.11785

 Mulliken charges:
               1
     1  H   -0.023689
     2  H    0.068780
     3  H    0.113828
     4  H    0.122666
     5  H    0.205289
     6  H    0.223085
     7  H    0.231548
     8  H    0.082291
     9  H    0.233354
    10  P    1.134159
    11  C   -0.398308
    12  C   -0.472448
    13  C   -0.558103
    14  C   -0.869598
    15  P    1.473365
    16  F   -0.782974
    17  F   -0.825310
    18  H    0.042064
 Sum of Mulliken charges =  -0.00000

 Dipole moment (field-independent basis, Debye):
    X=             -1.2570    Y=              0.4552    Z=              0.2193  Tot=              1.3547

 Test job not archived.
 1\1\GINC-SE104\SP\RHF\Aug-CC-pVDZ\C4H10F2P2\OHZDE\09-Apr-2025\0\\#t hf
  aug-cc-pvdz iop(5/13=1,5/36=2,99/5=2) pseudo=read geom=check guess=(r
 ead,tcheck) scf=(maxcycle=1)\\title\\0,1\H,0,-0.66372889,3.26375392,-1
 .41484082\H,0,0.57607353,2.07688321,-1.82463407\H,0,-0.55842324,2.6448
 712,-3.06242126\H,0,-2.87100416,-1.40911587,-1.55416728\H,0,0.42715494
 ,-1.23076192,-3.33739031\H,0,-2.60862974,-1.75549695,-3.26751243\H,0,-
 1.47646146,-2.36750684,-2.07165071\H,0,0.4157342,0.51539066,-3.5906339
 2\H,0,-0.67072928,-0.53226666,-4.50884988\P,0,-1.6570918,1.05342876,-1

 Normal termination of Gaussian 16 at Wed Apr  9 19:34:59 2025.
