 Gaussian 16, Revision C.01,

 ----------------------------------------------------------------------
 #t hf aug-cc-pvdz symm=none int=(grid=ultrafine) guess=(read,tcheck) s
 table=(opt,rrhf)
 ----------------------------------------------------------------------
 -----
 title
 -----
 Symbolic Z-matrix:
 Charge =  0 Multiplicity = 1

 SCF Done:  E(RHF) =  -797.387209147     A.U. after   11 cycles
 Normal termination of Gaussian 16 at Wed Apr  9 19:28:41 2025.
 Gaussian 16:  ES64L-G16RevC.01  3-Jul-2019

 ----------------------------------------------------------------------
 #t hf aug-cc-pvdz iop(5/13=1,5/36=2,99/5=2) pseudo=read geom=check gue
 ss=(read,tcheck) scf=(maxcycle=1)
 ----------------------------------------------------------------------
 -----
 title
 -----
 Structure from the checkpoint file:  "HB300SPXx10_1221_4.27_0.80_sulfane_sulfane_dimer_mol1.chk"
 Charge =  0 Multiplicity = 1

                         Standard orientation:
 ---------------------------------------------------------------------
 Center     Atomic      Atomic             Coordinates (Angstroms)
 Number     Number       Type             X           Y           Z
 ---------------------------------------------------------------------
      1          1           0       -0.462561   -0.080554   -0.105762
      2          1           0       -1.854581    1.263146    0.081838
      3         16           0       -1.804260   -0.074165   -0.003713
      4          1           0        1.675825    0.374631    1.219399
      5          1           0        1.882297    1.133687   -0.553825
      6         16           0        1.726698   -0.094017   -0.036390
 ---------------------------------------------------------------------

 SCF Done:  E(RHF) =  -797.514716341     A.U. after    2 cycles

 The electronic state is 1-A.
 Alpha  occ. eigenvalues --  -93.97982 -93.94130  -8.26136  -8.22320  -6.23992
 Alpha  occ. eigenvalues --   -6.23878  -6.23653  -6.20195  -6.20080  -6.19843
 Alpha  occ. eigenvalues --   -1.04201  -1.00116  -0.61469  -0.59320  -0.52542
 Alpha  occ. eigenvalues --   -0.50169  -0.39721  -0.37563
 Alpha virt. eigenvalues --    0.02943   0.05339   0.05604   0.06548   0.10668
 Alpha virt. eigenvalues --    0.11464   0.11686   0.13852   0.14619   0.15350
 Alpha virt. eigenvalues --    0.17853   0.19473   0.20679   0.23675   0.24346

 Mulliken charges:
               1
     1  H    0.463001
     2  H    0.239623
     3  S   -0.579469
     4  H    0.310331
     5  H    0.301340
     6  S   -0.734826
 Sum of Mulliken charges =   0.00000

 Dipole moment (field-independent basis, Debye):
    X=              1.7573    Y=              1.8600    Z=              0.4381  Tot=              2.5961

 Test job not archived.
 1\1\GINC-SE056\SP\RHF\Aug-CC-pVDZ\H4S2\OHZDE\09-Apr-2025\0\\#t hf aug-
 cc-pvdz iop(5/13=1,5/36=2,99/5=2) pseudo=read geom=check guess=(read,t
 check) scf=(maxcycle=1)\\title\\0,1\H,0,0.53139832,0.64498716,-0.29055
 053\H,0,2.23879772,0.67266195,0.63813986\S,0,1.60273769,1.45777787,-0.
 24349168\H,0,-1.44932118,-0.18449265,1.09676808\H,0,-0.68135046,-1.700
 05174,0.16059337\S,0,-1.29581503,-0.55810331,-0.18232447\\Version=ES64
 L-G16RevC.01\State=1-A\HF=-797.5147163\RMSD=5.695e-03\Dipole=-0.283766
 3,-0.7747363,0.602059\Quadrupole=-1.2265085,0.3186705,0.907838,-2.0241

 Normal termination of Gaussian 16 at Wed Apr  9 19:28:42 2025.
