 Gaussian 16, Revision C.01,

 ----------------------------------------------------------------------
 #t hf aug-cc-pvdz symm=none int=(grid=ultrafine) guess=(read,tcheck) s
 table=(opt,rrhf)
 ----------------------------------------------------------------------
 -----
 title
 -----
 Symbolic Z-matrix:
 Charge =  0 Multiplicity = 1

 SCF Done:  E(RHF) =  -914.496422859     A.U. after   12 cycles

 1\1\GINC-SE015\Stability\RHF\Aug-CC-pVDZ\C3H10S2\OHZDE\09-Apr-2025\0\\
 #t hf aug-cc-pvdz symm=none int=(grid=ultrafine) guess=(read,tcheck) s
 table=(opt,rrhf)\\title\\0,1\H,0,2.306559,-2.0578968,-0.64952301\H,0,3
 .32031438,-1.47471252,0.67641305\H,0,2.52307119,-0.31083024,-0.3888258
 5\H,0,0.07002633,-1.01993654,0.36023035\C,0,2.42249764,-1.27751778,0.0
 9684023\S,0,1.02865784,-1.2837739,1.27093846\H,0,0.35011654,1.92712418
 ,-0.34623105\H,0,-0.56269221,3.20576527,-1.18955194\H,0,0.45217285,2.0
 8613338,-2.11188976\H,0,-3.35558849,0.68532461,0.04600916\H,0,-2.83165

 Normal termination of Gaussian 16 at Wed Apr  9 04:10:25 2025.
 Gaussian 16:  ES64L-G16RevC.01  3-Jul-2019

 ----------------------------------------------------------------------
 #t hf aug-cc-pvdz iop(5/13=1,5/36=2,99/5=2) pseudo=read geom=check gue
 ss=(read,tcheck) scf=(maxcycle=1)
 ----------------------------------------------------------------------
 -----
 title
 -----
 Structure from the checkpoint file:  "HB300SPXx10_1188_4.23_1.25_methanethiol_dimethylsulfide_dimer_mol1.chk"
 Charge =  0 Multiplicity = 1

                         Standard orientation:
 ---------------------------------------------------------------------
 Center     Atomic      Atomic             Coordinates (Angstroms)
 Number     Number       Type             X           Y           Z
 ---------------------------------------------------------------------
      1          1           0        2.974203    1.102176   -1.284393
      2          1           0        3.844359    1.067716    0.254292
      3          1           0        2.183452    1.670965    0.204994
      4          1           0        1.151422   -0.677314   -0.503417
      5          6           0        2.872162    0.943078   -0.214923
      6         16           0        2.331338   -0.759899    0.143848
      7          1           0       -0.675033    1.001320    1.259807
      8          1           0       -2.402586    1.419044    1.402633
      9          1           0       -1.363477    2.315922    0.284556
     10          1           0       -2.411102   -2.105478   -0.402131
     11          1           0       -3.035028   -1.205163    0.989863
     12          1           0       -1.296234   -1.570744    0.869562
     13          6           0       -1.558381    1.339178    0.720582
     14         16           0       -1.937220    0.207597   -0.641519
     15          6           0       -2.193091   -1.312525    0.308838
 ---------------------------------------------------------------------

 SCF Done:  E(RHF) =  -914.755574474     A.U. after    2 cycles

 The electronic state is 1-A.
 Alpha  occ. eigenvalues --  -93.94572 -93.94228 -11.26710 -11.26379 -11.26310
 Alpha  occ. eigenvalues --   -8.22647  -8.22333  -6.20506  -6.20365  -6.20167
 Alpha  occ. eigenvalues --   -6.20133  -6.20010  -6.19782  -1.08784  -1.05856
 Alpha  occ. eigenvalues --   -0.96136  -0.88273  -0.82917  -0.61984  -0.61389
 Alpha  occ. eigenvalues --   -0.61126  -0.59762  -0.58916  -0.57508  -0.53240
 Alpha  occ. eigenvalues --   -0.50716  -0.46639  -0.44647  -0.36181  -0.34737
 Alpha virt. eigenvalues --    0.03331   0.03790   0.04339   0.04695   0.05877
 Alpha virt. eigenvalues --    0.06335   0.06785   0.07594   0.08788   0.09830
 Alpha virt. eigenvalues --    0.10192   0.12778   0.12907   0.13967   0.14214

 Mulliken charges:
               1
     1  H    0.147222
     2  H    0.145483
     3  H    0.138795
     4  H    0.372477
     5  C   -0.678507
     6  S   -0.121448
     7  H    0.181579
     8  H    0.156033
     9  H    0.144607
    10  H    0.150414
    11  H    0.172612
    12  H    0.151801
    13  C   -0.651440
    14  S    0.340649
    15  C   -0.650278
 Sum of Mulliken charges =  -0.00000

 Dipole moment (field-independent basis, Debye):
    X=             -0.3516    Y=              1.2284    Z=              1.0458  Tot=              1.6511

 Test job not archived.
 1\1\GINC-SE015\SP\RHF\Aug-CC-pVDZ\C3H10S2\OHZDE\09-Apr-2025\0\\#t hf a
 ug-cc-pvdz iop(5/13=1,5/36=2,99/5=2) pseudo=read geom=check guess=(rea
 d,tcheck) scf=(maxcycle=1)\\title\\0,1\H,0,2.306559,-2.0578968,-0.6495
 2301\H,0,3.32031438,-1.47471252,0.67641305\H,0,2.52307119,-0.31083024,
 -0.38882585\H,0,0.07002633,-1.01993654,0.36023035\C,0,2.42249764,-1.27
 751778,0.09684023\S,0,1.02865784,-1.2837739,1.27093846\H,0,0.35011654,
 1.92712418,-0.34623105\H,0,-0.56269221,3.20576527,-1.18955194\H,0,0.45
 217285,2.08613338,-2.11188976\H,0,-3.35558849,0.68532461,0.04600916\H,

 Normal termination of Gaussian 16 at Wed Apr  9 04:10:30 2025.
