 Gaussian 16, Revision C.01,

 ----------------------------------------------------------------------
 #t hf aug-cc-pvdz symm=none int=(grid=ultrafine) guess=(read,tcheck) s
 table=(opt,rrhf)
 ----------------------------------------------------------------------
 -----
 title
 -----
 Symbolic Z-matrix:
 Charge =  0 Multiplicity = 1

 SCF Done:  E(RHF) =  -460.091297453     A.U. after    9 cycles
 Normal termination of Gaussian 16 at Wed Apr  9 19:29:41 2025.
 Gaussian 16:  ES64L-G16RevC.01  3-Jul-2019

 ----------------------------------------------------------------------
 #t hf aug-cc-pvdz iop(5/13=1,5/36=2,99/5=2) pseudo=read geom=check gue
 ss=(read,tcheck) scf=(maxcycle=1)
 ----------------------------------------------------------------------
 -----
 title
 -----
 Structure from the checkpoint file:  "HB300SPXx10_1321_4.37_0.80_hydrogenchloride_dimethylsulfide_dimer_mol2.chk"
 Charge =  0 Multiplicity = 1

                         Standard orientation:
 ---------------------------------------------------------------------
 Center     Atomic      Atomic             Coordinates (Angstroms)
 Number     Number       Type             X           Y           Z
 ---------------------------------------------------------------------
      1          1           0       -0.000000   -0.000000   -1.250684
      2         17           0        0.000000    0.000000    0.073570
 ---------------------------------------------------------------------

 SCF Done:  E(RHF) =  -460.168694572     A.U. after    2 cycles

 The electronic state is 1-SG.
 Alpha  occ. eigenvalues -- -105.58661 -10.63315  -7.80282  -7.79892  -7.79892
 Alpha  occ. eigenvalues --   -1.06697  -0.62416  -0.48560  -0.48560
 Alpha virt. eigenvalues --    0.03375   0.12739   0.14038   0.14038   0.16672
 Alpha virt. eigenvalues --    0.21272   0.30941   0.30941   0.45574   0.45574
 Alpha virt. eigenvalues --    0.47642   0.57694   0.59092   0.59092   0.89101

 Mulliken charges:
               1
     1  H    0.206851
     2  Cl  -0.206851
 Sum of Mulliken charges =  -0.00000

 Dipole moment (field-independent basis, Debye):
    X=             -0.0000    Y=              0.0000    Z=             -1.3295  Tot=              1.3295

 Test job not archived.
 1\1\GINC-SE056\SP\RHF\Aug-CC-pVDZ\Cl1H1\OHZDE\09-Apr-2025\0\\#t hf aug
 -cc-pvdz iop(5/13=1,5/36=2,99/5=2) pseudo=read geom=check guess=(read,
 tcheck) scf=(maxcycle=1)\\title\\0,1\H,0,-0.09169332,-0.01707414,-1.03
 147385\Cl,0,0.64323048,-0.44620369,-2.04605842\\Version=ES64L-G16RevC.
 01\State=1-SG\HF=-460.1686946\RMSD=4.274e-03\Dipole=-0.2902962,0.16950
 69,0.4007626\Quadrupole=-0.0768462,-0.692433,0.7692791,-0.5454034,-1.2
 894891,0.7529459\PG=C*V [C*(H1Cl1)]\\@

 Normal termination of Gaussian 16 at Wed Apr  9 19:29:42 2025.
