 Gaussian 16, Revision C.01,

 ----------------------------------------------------------------------
 #t hf aug-cc-pvdz symm=none int=(grid=ultrafine) guess=(read,tcheck) s
 table=(opt,rrhf)
 ----------------------------------------------------------------------
 -----
 title
 -----
 Symbolic Z-matrix:
 Charge =  0 Multiplicity = 1

 SCF Done:  E(RHF) =  -969.532005094     A.U. after   13 cycles
 Normal termination of Gaussian 16 at Wed Apr  9 19:24:14 2025.
 Gaussian 16:  ES64L-G16RevC.01  3-Jul-2019

 ----------------------------------------------------------------------
 #t hf aug-cc-pvdz iop(5/13=1,5/36=2,99/5=2) pseudo=read geom=check gue
 ss=(read,tcheck) scf=(maxcycle=1)
 ----------------------------------------------------------------------
 -----
 title
 -----
 Structure from the checkpoint file:  "HB300SPXx10_1064_4.10_0.95_methylamine_dimethyldisulfide_dimer_mol1.chk"
 Charge =  0 Multiplicity = 1

                         Standard orientation:
 ---------------------------------------------------------------------
 Center     Atomic      Atomic             Coordinates (Angstroms)
 Number     Number       Type             X           Y           Z
 ---------------------------------------------------------------------
      1          7           0        2.139468    0.931586   -0.007338
      2          1           0        2.315748    1.880991   -0.307924
      3          1           0        1.434324    0.550553   -0.626921
      4          6           0        3.364480    0.134368   -0.066627
      5          1           0        3.149443   -0.878720    0.271621
      6          1           0        3.821964    0.065134   -1.059986
      7          1           0        4.103177    0.552933    0.615883
      8          1           0       -1.826147    2.559741    0.643226
      9          1           0       -0.821888    2.192993   -0.774284
     10          1           0       -0.261638    1.741844    0.857634
     11          1           0       -0.497574   -2.021673    1.565740
     12          1           0        0.770294   -0.782419    1.314242
     13          1           0        0.912897   -2.378645    0.546509
     14          6           0       -1.126466    1.846356    0.209514
     15         16           0       -2.036579    0.274240    0.077081
     16         16           0       -0.639091   -1.041368   -0.642037
     17          6           0        0.217627   -1.602355    0.864602
 ---------------------------------------------------------------------

 SCF Done:  E(RHF) =  -969.852287798     A.U. after    2 cycles

 The electronic state is 1-A.
 Alpha  occ. eigenvalues --  -93.96683 -93.96509 -15.48214 -11.26382 -11.26265
 Alpha  occ. eigenvalues --  -11.25432  -8.24674  -8.24508  -6.22487  -6.22319
 Alpha  occ. eigenvalues --   -6.22271  -6.22103  -6.22058  -6.21880  -1.17386
 Alpha  occ. eigenvalues --   -1.11526  -1.02354  -0.91607  -0.90967  -0.80668
 Alpha  occ. eigenvalues --   -0.69948  -0.63344  -0.61713  -0.60422  -0.60157
 Alpha  occ. eigenvalues --   -0.58414  -0.57844  -0.54194  -0.53213  -0.49751
 Alpha  occ. eigenvalues --   -0.44723  -0.42931  -0.36508  -0.35485
 Alpha virt. eigenvalues --    0.03388   0.03955   0.04337   0.04902   0.05617
 Alpha virt. eigenvalues --    0.06020   0.06608   0.07302   0.07878   0.09307
 Alpha virt. eigenvalues --    0.09699   0.10396   0.11596   0.12987   0.14232

 Mulliken charges:
               1
     1  N    0.067201
     2  H    0.151088
     3  H    0.045635
     4  C   -0.440290
     5  H    0.025040
     6  H    0.101616
     7  H    0.081299
     8  H    0.115177
     9  H    0.195606
    10  H    0.265710
    11  H    0.103009
    12  H    0.228636
    13  H    0.220481
    14  C   -0.666622
    15  S    0.119645
    16  S   -0.012195
    17  C   -0.601036
 Sum of Mulliken charges =   0.00000

 Dipole moment (field-independent basis, Debye):
    X=              2.0819    Y=              0.9645    Z=              0.3295  Tot=              2.3180

 Test job not archived.
 1\1\GINC-SE231\SP\RHF\Aug-CC-pVDZ\C3H11N1S2\OHZDE\09-Apr-2025\0\\#t hf
  aug-cc-pvdz iop(5/13=1,5/36=2,99/5=2) pseudo=read geom=check guess=(r
 ead,tcheck) scf=(maxcycle=1)\\title\\0,1\N,0,-0.790217,0.77789413,2.28
 472778\H,0,-1.73224372,0.61681804,2.6155392\H,0,-0.85550262,0.99181266
 ,1.29666237\C,0,-0.16836631,1.8838218,3.01270443\H,0,0.84688345,2.0289
 6517,2.64500493\H,0,-0.69345824,2.84224623,2.93178871\H,0,-0.0959132,1
 .62767695,4.06903376\H,0,-1.76356837,-2.64886345,-0.18714213\H,0,-2.29
 27501,-0.95634145,-0.0993459\H,0,-0.95996695,-1.52999282,0.93756546\H,

 Normal termination of Gaussian 16 at Wed Apr  9 19:24:20 2025.
