 Gaussian 16, Revision C.01,

 ----------------------------------------------------------------------
 #t hf aug-cc-pvdz symm=none int=(grid=ultrafine) guess=(read,tcheck) s
 table=(opt,rrhf)
 ----------------------------------------------------------------------
 -----
 title
 -----
 Symbolic Z-matrix:
 Charge =  0 Multiplicity = 1

 SCF Done:  E(RHF) =  -3015.76520325     A.U. after   14 cycles
 Normal termination of Gaussian 16 at Wed Apr  9 19:30:05 2025.
 Gaussian 16:  ES64L-G16RevC.01  3-Jul-2019

 ----------------------------------------------------------------------
 #t hf aug-cc-pvdz iop(5/13=1,5/36=2,99/5=2) pseudo=read geom=check gue
 ss=(read,tcheck) scf=(maxcycle=1)
 ----------------------------------------------------------------------
 -----
 title
 -----
 Structure from the checkpoint file:  "HB300SPXx10_1346_4.39_1.05_hydrogenchloride_P4S3_dimer_mol1.chk"
 Charge =  0 Multiplicity = 1

                         Standard orientation:
 ---------------------------------------------------------------------
 Center     Atomic      Atomic             Coordinates (Angstroms)
 Number     Number       Type             X           Y           Z
 ---------------------------------------------------------------------
      1          1           0       -2.719936   -0.477463   -0.490821
      2         17           0       -3.804237    0.005640    0.016022
      3         16           0       -0.362897   -0.720031   -1.572802
      4         15           0       -0.115207    1.322796   -1.084439
      5         16           0       -0.212750   -0.735940    1.657794
      6         16           0        2.506623   -0.654952   -0.100647
      7         15           0        1.884984    1.360667   -0.051640
      8         15           0       -0.011466    1.304268    1.163891
      9         15           0        0.674779   -1.710641    0.003449
 ---------------------------------------------------------------------

 SCF Done:  E(RHF) =  -3016.19898584     A.U. after    2 cycles

 The electronic state is 1-A.
 Alpha  occ. eigenvalues -- -105.57340 -93.99774 -93.99335 -93.99328 -84.38009
 Alpha  occ. eigenvalues --  -84.34190 -84.34127 -84.34089 -10.62101  -8.28029
 Alpha  occ. eigenvalues --   -8.27652  -8.27640  -7.79089  -7.78703  -7.78699
 Alpha  occ. eigenvalues --   -6.84598  -6.81176  -6.81087  -6.81053  -6.25773
 Alpha  occ. eigenvalues --   -6.25600  -6.25393  -6.25389  -6.25388  -6.25215
 Alpha  occ. eigenvalues --   -6.25213  -6.24987  -6.24985  -4.36351  -4.36331
 Alpha  occ. eigenvalues --   -4.36010  -4.33424  -4.33030  -4.32973  -4.32598
 Alpha  occ. eigenvalues --   -4.32562  -4.32505  -4.32483  -4.32359  -4.32307
 Alpha  occ. eigenvalues --   -1.15064  -1.06441  -1.03851  -1.03752  -0.98014
 Alpha  occ. eigenvalues --   -0.76647  -0.73132  -0.73111  -0.62594  -0.55844
 Alpha  occ. eigenvalues --   -0.55242  -0.55076  -0.47864  -0.47771  -0.45218
 Alpha  occ. eigenvalues --   -0.43917  -0.43907  -0.43285  -0.43046  -0.39865
 Alpha  occ. eigenvalues --   -0.36446  -0.33152  -0.33072
 Alpha virt. eigenvalues --    0.03277   0.05268   0.05335   0.05472   0.05831
 Alpha virt. eigenvalues --    0.06289   0.06477   0.07615   0.08443   0.08984
 Alpha virt. eigenvalues --    0.10122   0.10339   0.10887   0.10983   0.11251

 Mulliken charges:
               1
     1  H    0.230903
     2  Cl  -0.178651
     3  S   -0.674840
     4  P    0.356673
     5  S   -0.574693
     6  S   -0.563433
     7  P    0.388917
     8  P    0.379432
     9  P    0.635693
 Sum of Mulliken charges =  -0.00000

 Dipole moment (field-independent basis, Debye):
    X=              1.6602    Y=              1.0331    Z=             -0.2236  Tot=              1.9681

 Test job not archived.
 1\1\GINC-SE114\SP\RHF\Aug-CC-pVDZ\Cl1H1P4S3\OHZDE\09-Apr-2025\0\\#t hf
  aug-cc-pvdz iop(5/13=1,5/36=2,99/5=2) pseudo=read geom=check guess=(r
 ead,tcheck) scf=(maxcycle=1)\\title\\0,1\H,0,-0.57388532,0.23171594,-0
 .00983813\Cl,0,-1.31085335,0.72448843,-0.94794305\S,0,0.97706615,-0.03
 407642,2.06598903\P,0,0.47004427,1.97492997,2.49002963\S,0,-2.150935,-
 0.2054706,2.86959269\S,0,0.12316104,-0.12803876,5.17527142\P,0,-0.1313
 6445,1.90164447,4.6583952\P,0,-1.706747,1.84822863,3.04825862\P,0,-0.3
 1279454,-1.12931569,3.36188966\\Version=ES64L-G16RevC.01\State=1-A\HF=

 Normal termination of Gaussian 16 at Wed Apr  9 19:30:11 2025.
