 Gaussian 16, Revision C.01,

 ----------------------------------------------------------------------
 #t hf aug-cc-pvdz symm=none int=(grid=ultrafine) guess=(read,tcheck) s
 table=(opt,rrhf)
 ----------------------------------------------------------------------
 -----
 title
 -----
 Symbolic Z-matrix:
 Charge =  0 Multiplicity = 1

 SCF Done:  E(RHF) =  -1121.34282099     A.U. after   13 cycles
 Normal termination of Gaussian 16 at Wed Apr  9 19:26:28 2025.
 Gaussian 16:  ES64L-G16RevC.01  3-Jul-2019

 ----------------------------------------------------------------------
 #t hf aug-cc-pvdz iop(5/13=1,5/36=2,99/5=2) pseudo=read geom=check gue
 ss=(read,tcheck) scf=(maxcycle=1)
 ----------------------------------------------------------------------
 -----
 title
 -----
 Structure from the checkpoint file:  "HB300SPXx10_1094_4.13_0.95_Nmethylacetamide_dimethyldisulfide_dimer_mol1.chk"
 Charge =  0 Multiplicity = 1

                         Standard orientation:
 ---------------------------------------------------------------------
 Center     Atomic      Atomic             Coordinates (Angstroms)
 Number     Number       Type             X           Y           Z
 ---------------------------------------------------------------------
      1          6           0       -1.721488    1.679239   -0.758828
      2          1           0       -1.059937    1.504706   -1.607387
      3          1           0       -1.148106    2.141266    0.042528
      4          1           0       -2.510009    2.353739   -1.081106
      5          6           0       -2.342173    0.356092   -0.355393
      6          8           0       -3.259201   -0.141563   -0.986458
      7          7           0       -1.795098   -0.224338    0.744628
      8          1           0       -0.961251    0.187511    1.129931
      9          6           0       -2.160593   -1.557097    1.177405
     10          1           0       -3.167619   -1.766435    0.830374
     11          1           0       -1.486972   -2.312063    0.766382
     12          1           0       -2.133383   -1.615143    2.263868
     13          1           0        2.719827   -2.182956   -1.750016
     14          1           0        3.310718   -1.928658   -0.093433
     15          1           0        3.492158   -0.646099   -1.320975
     16          1           0        1.164143    2.321425   -0.469388
     17          1           0        2.898345    1.921562   -0.354638
     18          1           0        2.088713    2.750121    0.987833
     19          6           0        2.858531   -1.449742   -0.956671
     20         16           0        1.194593   -0.837056   -0.545859
     21         16           0        1.544894    0.444527    1.016380
     22          6           0        1.965869    2.013900    0.194646
 ---------------------------------------------------------------------

 SCF Done:  E(RHF) =  -1121.81196806     A.U. after    2 cycles

 The electronic state is 1-A.
 Alpha  occ. eigenvalues --  -93.98479 -93.98050 -20.48779 -15.50673 -11.34021
 Alpha  occ. eigenvalues --  -11.28338 -11.27977 -11.25222 -11.23562  -8.26463
 Alpha  occ. eigenvalues --   -8.26046  -6.24273  -6.24064  -6.23854  -6.23850
 Alpha  occ. eigenvalues --   -6.23638  -6.23410  -1.43790  -1.22493  -1.13363
 Alpha  occ. eigenvalues --   -1.03991  -1.01359  -0.93496  -0.93210  -0.82428
 Alpha  occ. eigenvalues --   -0.80539  -0.69524  -0.66002  -0.63784  -0.63247
 Alpha  occ. eigenvalues --   -0.62226  -0.61706  -0.60020  -0.58441  -0.57489
 Alpha  occ. eigenvalues --   -0.55921  -0.55408  -0.54386  -0.51472  -0.50032
 Alpha  occ. eigenvalues --   -0.46274  -0.40778  -0.39775  -0.38353  -0.37130
 Alpha virt. eigenvalues --    0.02798   0.03116   0.03763   0.04247   0.05259
 Alpha virt. eigenvalues --    0.05533   0.05934   0.06684   0.07179   0.08000
 Alpha virt. eigenvalues --    0.08323   0.08696   0.09001   0.10697   0.11141

 Mulliken charges:
               1
     1  C   -0.415220
     2  H    0.271403
     3  H    0.183739
     4  H    0.142517
     5  C    0.419606
     6  O   -1.384697
     7  N    0.929604
     8  H    0.127243
     9  C   -0.396624
    10  H    0.054279
    11  H    0.168689
    12  H    0.106108
    13  H    0.169166
    14  H    0.206054
    15  H    0.177416
    16  H    0.089579
    17  H    0.136417
    18  H    0.219069
    19  C   -0.861148
    20  S    0.368600
    21  S   -0.037073
    22  C   -0.674724
 Sum of Mulliken charges =  -0.00000

 Dipole moment (field-independent basis, Debye):
    X=              5.5699    Y=              1.4820    Z=              0.8882  Tot=              5.8317

 Test job not archived.
 1\1\GINC-SE029\SP\RHF\Aug-CC-pVDZ\C5H13N1O1S2\OHZDE\09-Apr-2025\0\\#t
 hf aug-cc-pvdz iop(5/13=1,5/36=2,99/5=2) pseudo=read geom=check guess=
 (read,tcheck) scf=(maxcycle=1)\\title\\0,1\C,0,-1.31055971,-0.36190707
 ,2.17525478\H,0,-0.76310857,0.57466921,2.28149083\H,0,-0.59510431,-1.1
 7658722,2.08130356\H,0,-1.91110445,-0.50300543,3.06969011\C,0,-2.23351
 851,-0.24400233,0.97818704\O,0,-3.28055753,0.37845097,1.03390772\N,0,-
 1.80028089,-0.8717422,-0.1463058\H,0,-0.86873727,-1.25332097,-0.144399
 63\C,0,-2.47826303,-0.73306099,-1.41840567\H,0,-3.52176476,-0.50262299

 Normal termination of Gaussian 16 at Wed Apr  9 19:26:41 2025.
