 Gaussian 16, Revision C.01,

 ----------------------------------------------------------------------
 #t hf aug-cc-pvdz symm=none int=(grid=ultrafine) guess=(read,tcheck) s
 table=(opt,rrhf)
 ----------------------------------------------------------------------
 -----
 title
 -----
 Symbolic Z-matrix:
 Charge =  0 Multiplicity = 1

 SCF Done:  E(RHF) =  -571.990916357     A.U. after   12 cycles
 Normal termination of Gaussian 16 at Wed Apr  9 19:31:05 2025.
 Gaussian 16:  ES64L-G16RevC.01  3-Jul-2019

 ----------------------------------------------------------------------
 #t hf aug-cc-pvdz iop(5/13=1,5/36=2,99/5=2) pseudo=read geom=check gue
 ss=(read,tcheck) scf=(maxcycle=1)
 ----------------------------------------------------------------------
 -----
 title
 -----
 Structure from the checkpoint file:  "HB300SPXx10_136_1.14_1.05_sulfane_trimethylamine_dimer_mol1.chk"
 Charge =  0 Multiplicity = 1

                         Standard orientation:
 ---------------------------------------------------------------------
 Center     Atomic      Atomic             Coordinates (Angstroms)
 Number     Number       Type             X           Y           Z
 ---------------------------------------------------------------------
      1          1           0       -1.132604    0.046780    0.000000
      2          1           0       -2.757874   -1.062686    0.000000
      3         16           0       -2.488199    0.250519    0.000000
      4          1           0        2.439686   -0.832735    1.303193
      5          1           0        0.944805   -0.272685    2.080506
      6          1           0        0.956255   -1.800557    1.197590
      7          1           0        0.956255   -1.800557   -1.197590
      8          1           0        2.439686   -0.832735   -1.303193
      9          1           0        0.944805   -0.272685   -2.080506
     10          1           0        2.439473    1.412314    0.000000
     11          1           0        0.950682    1.804524   -0.882789
     12          6           0        1.344494   -0.783221    1.205875
     13          7           0        0.925489   -0.088742    0.000000
     14          6           0        1.344494   -0.783221   -1.205875
     15          6           0        1.344494    1.303006    0.000000
     16          1           0        0.950682    1.804524    0.882789
 ---------------------------------------------------------------------

 SCF Done:  E(RHF) =  -572.246717213     A.U. after    2 cycles

 The electronic state is 1-A'.
 Alpha  occ. eigenvalues --  -93.93507 -15.49944 -11.25903 -11.25899 -11.25882
 Alpha  occ. eigenvalues --   -8.21607  -6.19489  -6.19367  -6.19142  -1.23646
 Alpha  occ. eigenvalues --   -0.99086  -0.97097  -0.97087  -0.83157  -0.67742
 Alpha  occ. eigenvalues --   -0.66366  -0.66342  -0.57006  -0.56599  -0.56443
 Alpha  occ. eigenvalues --   -0.53783  -0.53250  -0.53248  -0.48688  -0.39365
 Alpha  occ. eigenvalues --   -0.36770
 Alpha virt. eigenvalues --    0.03466   0.04329   0.04618   0.04754   0.05902
 Alpha virt. eigenvalues --    0.06169   0.06243   0.06970   0.07099   0.09907
 Alpha virt. eigenvalues --    0.10115   0.12291   0.13636   0.14604   0.14715

 Mulliken charges:
               1
     1  H    0.480581
     2  H    0.195475
     3  S   -0.577024
     4  H    0.210093
     5  H    0.105538
     6  H    0.106521
     7  H    0.106521
     8  H    0.210093
     9  H    0.105538
    10  H    0.189761
    11  H    0.107984
    12  C   -0.349382
    13  N   -0.300812
    14  C   -0.349382
    15  C   -0.349491
    16  H    0.107984
 Sum of Mulliken charges =  -0.00000

 Dipole moment (field-independent basis, Debye):
    X=              2.6122    Y=             -0.9937    Z=              0.0000  Tot=              2.7948

 Test job not archived.
 1\1\GINC-SE168\SP\RHF\Aug-CC-pVDZ\C3H11N1S1\OHZDE\09-Apr-2025\0\\#t hf
  aug-cc-pvdz iop(5/13=1,5/36=2,99/5=2) pseudo=read geom=check guess=(r
 ead,tcheck) scf=(maxcycle=1)\\title\\0,1\H,0,0.06719299,0.97177334,0.\
 H,0,1.32304535,2.48678341,0.\S,0,-0.00955285,2.34044335,0.\H,0,0.61056
 714,-2.66684492,-1.30319342\H,0,0.1920132,-1.12634599,-2.08050641\H,0,
 1.71219445,-1.27988291,-1.19759028\H,0,1.71219445,-1.27988291,1.197590
 28\H,0,0.61056714,-2.66684492,1.30319342\H,0,0.1920132,-1.12634599,2.0
 8050641\H,0,-1.62472634,-2.45777849,0.\H,0,-1.87673437,-0.93895613,0.8

 Normal termination of Gaussian 16 at Wed Apr  9 19:31:08 2025.
