 Gaussian 16, Revision C.01,

 ----------------------------------------------------------------------
 #t hf aug-cc-pvdz symm=none int=(grid=ultrafine) guess=(read,tcheck) s
 table=(opt,rrhf)
 ----------------------------------------------------------------------
 -----
 title
 -----
 Symbolic Z-matrix:
 Charge =  0 Multiplicity = 1

 SCF Done:  E(RHF) =  -974.724429250     A.U. after   13 cycles
 Normal termination of Gaussian 16 at Wed Apr  9 19:30:51 2025.
 Gaussian 16:  ES64L-G16RevC.01  3-Jul-2019

 ----------------------------------------------------------------------
 #t hf aug-cc-pvdz iop(5/13=1,5/36=2,99/5=2) pseudo=read geom=check gue
 ss=(read,tcheck) scf=(maxcycle=1)
 ----------------------------------------------------------------------
 -----
 title
 -----
 Structure from the checkpoint file:  "HB300SPXx10_1375_4.42_1.00_hydrogenchloride_thioacetone_dimer_mol1.chk"
 Charge =  0 Multiplicity = 1

                         Standard orientation:
 ---------------------------------------------------------------------
 Center     Atomic      Atomic             Coordinates (Angstroms)
 Number     Number       Type             X           Y           Z
 ---------------------------------------------------------------------
      1          1           0        1.651160   -0.213438    0.000000
      2         17           0        2.565633   -1.162447    0.000000
      3          1           0       -0.293724   -1.545097    0.000000
      4          1           0       -1.838946   -1.525292    0.874054
      5          1           0       -1.838946   -1.525292   -0.874054
      6          1           0       -2.674857    2.035610    0.000000
      7          1           0       -3.263774    0.604352   -0.874659
      8          6           0       -1.302077   -1.148091    0.000000
      9          6           0       -1.338525    0.347091    0.000000
     10         16           0        0.000000    1.276425    0.000000
     11          6           0       -2.708215    0.951599    0.000000
     12          1           0       -3.263774    0.604352    0.874659
 ---------------------------------------------------------------------

 SCF Done:  E(RHF) =  -974.990223888     A.U. after    2 cycles

 The electronic state is 1-A'.
 Alpha  occ. eigenvalues -- -105.54759 -93.94372 -11.35094 -11.26617 -11.26381
 Alpha  occ. eigenvalues --  -10.59556  -8.22720  -7.76519  -7.76182  -7.76172
 Alpha  occ. eigenvalues --   -6.20528  -6.20326  -6.20141  -1.15206  -1.03877
 Alpha  occ. eigenvalues --   -0.99367  -0.98615  -0.75052  -0.64263  -0.63764
 Alpha  occ. eigenvalues --   -0.63653  -0.59874  -0.57929  -0.55592  -0.52094
 Alpha  occ. eigenvalues --   -0.45575  -0.45572  -0.41211  -0.36568
 Alpha virt. eigenvalues --    0.02704   0.03006   0.04118   0.05447   0.05627
 Alpha virt. eigenvalues --    0.07034   0.07201   0.08034   0.09465   0.10939
 Alpha virt. eigenvalues --    0.13231   0.13551   0.14109   0.15330   0.15757

 Mulliken charges:
               1
     1  H    0.323394
     2  Cl  -0.245849
     3  H    0.038004
     4  H    0.287882
     5  H    0.287882
     6  H    0.173067
     7  H    0.255489
     8  C   -0.470516
     9  C   -0.480436
    10  S    0.061870
    11  C   -0.486275
    12  H    0.255489
 Sum of Mulliken charges =  -0.00000

 Dipole moment (field-independent basis, Debye):
    X=             -4.9680    Y=             -0.3502    Z=              0.0000  Tot=              4.9803

 Test job not archived.
 1\1\GINC-SE084\SP\RHF\Aug-CC-pVDZ\C3H7Cl1S1\OHZDE\09-Apr-2025\0\\#t hf
  aug-cc-pvdz iop(5/13=1,5/36=2,99/5=2) pseudo=read geom=check guess=(r
 ead,tcheck) scf=(maxcycle=1)\\title\\0,1\H,0,-0.37830043,1.49279945,0.
 \Cl,0,0.15229845,2.69917624,0.\H,0,1.59222385,0.19938463,0.\H,0,2.1607
 5771,-1.23758166,0.87405369\H,0,2.16075771,-1.23758166,-0.87405369\H,0
 ,-0.81587334,-3.36324443,0.\H,0,0.73181017,-3.36446424,-0.87465894\C,0
 ,1.6079228,-0.88419457,0.\C,0,0.23861125,-1.48576201,0.\S,0,-1.1294455
 5,-0.60047548,0.\C,0,0.19958611,-2.98241016,0.\H,0,0.73181017,-3.36446

 Normal termination of Gaussian 16 at Wed Apr  9 19:30:55 2025.
