 Gaussian 16, Revision C.01,

 ----------------------------------------------------------------------
 #t hf aug-cc-pvdz symm=none int=(grid=ultrafine) guess=(read,tcheck) s
 table=(opt,rrhf)
 ----------------------------------------------------------------------
 -----
 title
 -----
 Symbolic Z-matrix:
 Charge =  0 Multiplicity = 1

 SCF Done:  E(RHF) =  -1121.33414087     A.U. after   13 cycles
 Normal termination of Gaussian 16 at Wed Apr  9 19:26:30 2025.
 Gaussian 16:  ES64L-G16RevC.01  3-Jul-2019

 ----------------------------------------------------------------------
 #t hf aug-cc-pvdz iop(5/13=1,5/36=2,99/5=2) pseudo=read geom=check gue
 ss=(read,tcheck) scf=(maxcycle=1)
 ----------------------------------------------------------------------
 -----
 title
 -----
 Structure from the checkpoint file:  "HB300SPXx10_1092_4.13_0.85_Nmethylacetamide_dimethyldisulfide_dimer_mol1.chk"
 Charge =  0 Multiplicity = 1

                         Standard orientation:
 ---------------------------------------------------------------------
 Center     Atomic      Atomic             Coordinates (Angstroms)
 Number     Number       Type             X           Y           Z
 ---------------------------------------------------------------------
      1          6           0       -1.594046    1.678959   -0.759609
      2          1           0       -0.933901    1.510908   -1.610568
      3          1           0       -1.022284    2.146475    0.039717
      4          1           0       -2.390232    2.345798   -1.078972
      5          6           0       -2.200404    0.349827   -0.354070
      6          8           0       -3.114833   -0.156661   -0.981870
      7          7           0       -1.643757   -0.225340    0.743912
      8          1           0       -0.812559    0.194555    1.126244
      9          6           0       -1.994740   -1.561611    1.177872
     10          1           0       -3.000934   -1.780687    0.834456
     11          1           0       -1.315315   -2.309978    0.764345
     12          1           0       -1.963046   -1.619460    2.264223
     13          1           0        2.617438   -2.169513   -1.754305
     14          1           0        3.211810   -1.909602   -0.099840
     15          1           0        3.376366   -0.625263   -1.327901
     16          1           0        1.022760    2.319479   -0.467620
     17          1           0        2.761163    1.936453   -0.359170
     18          1           0        1.948382    2.757031    0.986297
     19          6           0        2.751885   -1.435040   -0.961393
     20         16           0        1.083575   -0.838553   -0.544516
     21         16           0        1.427064    0.446267    1.016576
     22          6           0        1.829824    2.019704    0.193485
 ---------------------------------------------------------------------

 SCF Done:  E(RHF) =  -1121.80387669     A.U. after    2 cycles

 The electronic state is 1-A.
 Alpha  occ. eigenvalues --  -93.98546 -93.98077 -20.48646 -15.50197 -11.33866
 Alpha  occ. eigenvalues --  -11.28391 -11.27982 -11.25018 -11.23506  -8.26566
 Alpha  occ. eigenvalues --   -8.26080  -6.24369  -6.24161  -6.23961  -6.23880
 Alpha  occ. eigenvalues --   -6.23668  -6.23436  -1.43654  -1.22372  -1.13524
 Alpha  occ. eigenvalues --   -1.04124  -1.01295  -0.93713  -0.93055  -0.82683
 Alpha  occ. eigenvalues --   -0.80444  -0.69500  -0.66115  -0.63828  -0.63323
 Alpha  occ. eigenvalues --   -0.62293  -0.61750  -0.60075  -0.58441  -0.57259
 Alpha  occ. eigenvalues --   -0.56046  -0.55217  -0.54216  -0.51611  -0.49893
 Alpha  occ. eigenvalues --   -0.46309  -0.40707  -0.39568  -0.38446  -0.37187
 Alpha virt. eigenvalues --    0.02781   0.03089   0.03735   0.04258   0.05262
 Alpha virt. eigenvalues --    0.05524   0.05933   0.06715   0.07191   0.08103
 Alpha virt. eigenvalues --    0.08408   0.08719   0.09023   0.10836   0.11225

 Mulliken charges:
               1
     1  C   -0.424931
     2  H    0.289372
     3  H    0.221764
     4  H    0.115558
     5  C    0.452659
     6  O   -1.401024
     7  N    0.929372
     8  H    0.186674
     9  C   -0.396669
    10  H    0.051369
    11  H    0.188179
    12  H    0.109590
    13  H    0.170834
    14  H    0.205527
    15  H    0.174893
    16  H    0.044217
    17  H    0.117194
    18  H    0.234585
    19  C   -0.846099
    20  S    0.363319
    21  S   -0.148811
    22  C   -0.637573
 Sum of Mulliken charges =   0.00000

 Dipole moment (field-independent basis, Debye):
    X=              5.5937    Y=              1.5308    Z=              0.8476  Tot=              5.8610

 Test job not archived.
 1\1\GINC-SE224\SP\RHF\Aug-CC-pVDZ\C5H13N1O1S2\OHZDE\09-Apr-2025\0\\#t
 hf aug-cc-pvdz iop(5/13=1,5/36=2,99/5=2) pseudo=read geom=check guess=
 (read,tcheck) scf=(maxcycle=1)\\title\\0,1\C,0,-1.31055971,-0.36190707
 ,2.17525478\H,0,-0.76310857,0.57466921,2.28149083\H,0,-0.59510431,-1.1
 7658722,2.08130356\H,0,-1.91110445,-0.50300543,3.06969011\C,0,-2.23351
 851,-0.24400233,0.97818704\O,0,-3.28055753,0.37845097,1.03390772\N,0,-
 1.80028089,-0.8717422,-0.1463058\H,0,-0.86873727,-1.25332097,-0.144399
 63\C,0,-2.47826303,-0.73306099,-1.41840567\H,0,-3.52176476,-0.50262299

 Normal termination of Gaussian 16 at Wed Apr  9 19:26:43 2025.
