 Gaussian 16, Revision C.01,

 ----------------------------------------------------------------------
 #t hf aug-cc-pvdz symm=none int=(grid=ultrafine) guess=(read,tcheck) s
 table=(opt,rrhf)
 ----------------------------------------------------------------------
 -----
 title
 -----
 Symbolic Z-matrix:
 Charge =  0 Multiplicity = 1

 SCF Done:  E(RHF) =  -969.529365757     A.U. after   13 cycles
 Normal termination of Gaussian 16 at Wed Apr  9 19:24:14 2025.
 Gaussian 16:  ES64L-G16RevC.01  3-Jul-2019

 ----------------------------------------------------------------------
 #t hf aug-cc-pvdz iop(5/13=1,5/36=2,99/5=2) pseudo=read geom=check gue
 ss=(read,tcheck) scf=(maxcycle=1)
 ----------------------------------------------------------------------
 -----
 title
 -----
 Structure from the checkpoint file:  "HB300SPXx10_1063_4.10_0.90_methylamine_dimethyldisulfide_dimer_mol1.chk"
 Charge =  0 Multiplicity = 1

                         Standard orientation:
 ---------------------------------------------------------------------
 Center     Atomic      Atomic             Coordinates (Angstroms)
 Number     Number       Type             X           Y           Z
 ---------------------------------------------------------------------
      1          7           0        2.025137    0.946596   -0.010946
      2          1           0        2.165492    1.901381   -0.313405
      3          1           0        1.334401    0.538221   -0.629339
      4          6           0        3.279156    0.195782   -0.069606
      5          1           0        3.102484   -0.824026    0.270661
      6          1           0        3.738302    0.141899   -1.063149
      7          1           0        4.002054    0.643038    0.611623
      8          1           0       -1.892452    2.513883    0.639905
      9          1           0       -0.876020    2.182414   -0.777616
     10          1           0       -0.298231    1.755652    0.854746
     11          1           0       -0.392382   -2.012736    1.569962
     12          1           0        0.827949   -0.727267    1.315304
     13          1           0        1.029857   -2.318453    0.550421
     14          6           0       -1.166772    1.826436    0.207030
     15         16           0       -2.017351    0.221042    0.078125
     16         16           0       -0.571939   -1.042561   -0.639524
     17          6           0        0.306152   -1.568197    0.867558
 ---------------------------------------------------------------------

 SCF Done:  E(RHF) =  -969.849854075     A.U. after    2 cycles

 The electronic state is 1-A.
 Alpha  occ. eigenvalues --  -93.96678 -93.96519 -15.48044 -11.26351 -11.26152
 Alpha  occ. eigenvalues --  -11.25391  -8.24676  -8.24517  -6.22487  -6.22328
 Alpha  occ. eigenvalues --   -6.22271  -6.22112  -6.22063  -6.21889  -1.17384
 Alpha  occ. eigenvalues --   -1.11518  -1.02358  -0.91594  -0.90965  -0.80688
 Alpha  occ. eigenvalues --   -0.70066  -0.63349  -0.61761  -0.60405  -0.60142
 Alpha  occ. eigenvalues --   -0.58336  -0.57640  -0.54313  -0.53078  -0.49753
 Alpha  occ. eigenvalues --   -0.44751  -0.42859  -0.36510  -0.35492
 Alpha virt. eigenvalues --    0.03404   0.03967   0.04336   0.04900   0.05615
 Alpha virt. eigenvalues --    0.06035   0.06602   0.07322   0.07882   0.09349
 Alpha virt. eigenvalues --    0.09733   0.10444   0.11667   0.13030   0.14243

 Mulliken charges:
               1
     1  N    0.063398
     2  H    0.159928
     3  H    0.057795
     4  C   -0.434858
     5  H    0.016520
     6  H    0.101637
     7  H    0.083576
     8  H    0.103603
     9  H    0.194427
    10  H    0.285537
    11  H    0.079623
    12  H    0.240786
    13  H    0.232212
    14  C   -0.673241
    15  S    0.126284
    16  S   -0.052323
    17  C   -0.584906
 Sum of Mulliken charges =  -0.00000

 Dipole moment (field-independent basis, Debye):
    X=              2.0217    Y=              1.0438    Z=              0.3408  Tot=              2.3006

 Test job not archived.
 1\1\GINC-SE219\SP\RHF\Aug-CC-pVDZ\C3H11N1S2\OHZDE\09-Apr-2025\0\\#t hf
  aug-cc-pvdz iop(5/13=1,5/36=2,99/5=2) pseudo=read geom=check guess=(r
 ead,tcheck) scf=(maxcycle=1)\\title\\0,1\N,0,-0.790217,0.77789413,2.28
 472778\H,0,-1.73224372,0.61681804,2.6155392\H,0,-0.85550262,0.99181266
 ,1.29666237\C,0,-0.16836631,1.8838218,3.01270443\H,0,0.84688345,2.0289
 6517,2.64500493\H,0,-0.69345824,2.84224623,2.93178871\H,0,-0.0959132,1
 .62767695,4.06903376\H,0,-1.8295884,-2.62975869,-0.06795445\H,0,-2.358
 77013,-0.93723669,0.01984177\H,0,-1.02598698,-1.51088806,1.05675314\H,

 Normal termination of Gaussian 16 at Wed Apr  9 19:24:21 2025.
