 Gaussian 16, Revision C.01,

 ----------------------------------------------------------------------
 #t hf aug-cc-pvdz symm=none int=(grid=ultrafine) guess=(read,tcheck) s
 table=(opt,rrhf)
 ----------------------------------------------------------------------
 -----
 title
 -----
 Symbolic Z-matrix:
 Charge =  0 Multiplicity = 1

 SCF Done:  E(RHF) =  -974.722683777     A.U. after   13 cycles
 Normal termination of Gaussian 16 at Wed Apr  9 19:30:51 2025.
 Gaussian 16:  ES64L-G16RevC.01  3-Jul-2019

 ----------------------------------------------------------------------
 #t hf aug-cc-pvdz iop(5/13=1,5/36=2,99/5=2) pseudo=read geom=check gue
 ss=(read,tcheck) scf=(maxcycle=1)
 ----------------------------------------------------------------------
 -----
 title
 -----
 Structure from the checkpoint file:  "HB300SPXx10_1374_4.42_0.95_hydrogenchloride_thioacetone_dimer_mol1.chk"
 Charge =  0 Multiplicity = 1

                         Standard orientation:
 ---------------------------------------------------------------------
 Center     Atomic      Atomic             Coordinates (Angstroms)
 Number     Number       Type             X           Y           Z
 ---------------------------------------------------------------------
      1          1           0        1.597202   -0.129445    0.000000
      2         17           0        2.530882   -1.059565    0.000000
      3          1           0       -0.235994   -1.573368    0.000000
      4          1           0       -1.781298   -1.585150    0.874054
      5          1           0       -1.781298   -1.585150   -0.874054
      6          1           0       -2.689815    1.957924    0.000000
      7          1           0       -3.249356    0.514928   -0.874659
      8          6           0       -1.252251   -1.197054    0.000000
      9          6           0       -1.319251    0.297071    0.000000
     10         16           0       -0.000000    1.253568    0.000000
     11          6           0       -2.701010    0.873458    0.000000
     12          1           0       -3.249356    0.514928    0.874659
 ---------------------------------------------------------------------

 SCF Done:  E(RHF) =  -974.988917726     A.U. after    2 cycles

 The electronic state is 1-A'.
 Alpha  occ. eigenvalues -- -105.54158 -93.94526 -11.35292 -11.26746 -11.26419
 Alpha  occ. eigenvalues --  -10.58996  -8.22912  -7.75954  -7.75626  -7.75614
 Alpha  occ. eigenvalues --   -6.20716  -6.20512  -6.20336  -1.15400  -1.03601
 Alpha  occ. eigenvalues --   -0.99541  -0.98707  -0.75243  -0.64583  -0.63864
 Alpha  occ. eigenvalues --   -0.63776  -0.59727  -0.58013  -0.55708  -0.52145
 Alpha  occ. eigenvalues --   -0.45212  -0.45179  -0.41395  -0.36671
 Alpha virt. eigenvalues --    0.02669   0.02927   0.04091   0.05349   0.05622
 Alpha virt. eigenvalues --    0.07057   0.07182   0.08005   0.09452   0.10987
 Alpha virt. eigenvalues --    0.13226   0.13561   0.14097   0.15317   0.15809

 Mulliken charges:
               1
     1  H    0.362699
     2  Cl  -0.260317
     3  H    0.033969
     4  H    0.289071
     5  H    0.289071
     6  H    0.172538
     7  H    0.256125
     8  C   -0.462515
     9  C   -0.486813
    10  S    0.041121
    11  C   -0.491074
    12  H    0.256125
 Sum of Mulliken charges =  -0.00000

 Dipole moment (field-independent basis, Debye):
    X=             -5.1189    Y=             -0.3679    Z=             -0.0000  Tot=              5.1321

 Test job not archived.
 1\1\GINC-SE029\SP\RHF\Aug-CC-pVDZ\C3H7Cl1S1\OHZDE\09-Apr-2025\0\\#t hf
  aug-cc-pvdz iop(5/13=1,5/36=2,99/5=2) pseudo=read geom=check guess=(r
 ead,tcheck) scf=(maxcycle=1)\\title\\0,1\H,0,-0.37830043,1.49279945,0.
 \Cl,0,0.15229845,2.69917624,0.\H,0,1.6297811,0.30404838,0.\H,0,2.19831
 496,-1.13291791,0.87405369\H,0,2.19831496,-1.13291791,-0.87405369\H,0,
 -0.77831608,-3.25858068,0.\H,0,0.76936742,-3.25980049,-0.87465894\C,0,
 1.64548006,-0.77953083,0.\C,0,0.27616851,-1.38109826,0.\S,0,-1.0918882
 9,-0.49581174,0.\C,0,0.23714336,-2.87774641,0.\H,0,0.76936742,-3.25980

 Normal termination of Gaussian 16 at Wed Apr  9 19:30:55 2025.
