 Gaussian 16, Revision C.01,

 ----------------------------------------------------------------------
 #t hf aug-cc-pvdz symm=none int=(grid=ultrafine) guess=(read,tcheck) s
 table=(opt,rrhf)
 ----------------------------------------------------------------------
 -----
 title
 -----
 Symbolic Z-matrix:
 Charge =  0 Multiplicity = 1

 SCF Done:  E(RHF) =  -1054.88852678     A.U. after   15 cycles
 Normal termination of Gaussian 16 at Wed Apr  9 19:34:20 2025.
 Gaussian 16:  ES64L-G16RevC.01  3-Jul-2019

 ----------------------------------------------------------------------
 #t hf aug-cc-pvdz iop(5/13=1,5/36=2,99/5=2) pseudo=read geom=check gue
 ss=(read,tcheck) scf=(maxcycle=1)
 ----------------------------------------------------------------------
 -----
 title
 -----
 Structure from the checkpoint file:  "HB300SPXx10_1483_5.11_0.90_thioacetone_phosphineF2_dimer_mol1.chk"
 Charge =  0 Multiplicity = 1

                         Standard orientation:
 ---------------------------------------------------------------------
 Center     Atomic      Atomic             Coordinates (Angstroms)
 Number     Number       Type             X           Y           Z
 ---------------------------------------------------------------------
      1          1           0        0.506018    1.638572   -0.135786
      2          1           0        1.739494    1.916056    1.111163
      3          1           0        2.152653    2.143743   -0.572468
      4          1           0        3.744836   -1.157800    0.229585
      5          1           0        4.049468    0.436269   -0.494046
      6          6           0        1.556118    1.528367    0.105318
      7          6           0        2.011815    0.104740    0.033621
      8         16           0        1.001381   -1.135596   -0.264746
      9          6           0        3.477031   -0.107365    0.261823
     10          1           0        3.766236    0.313763    1.228027
     11         15           0       -1.842447   -0.239729    0.283254
     12          9           0       -3.445871   -0.105204    0.285079
     13          9           0       -1.534256    1.050506   -0.618775
     14          1           0       -1.792744   -1.187295   -0.780659
 ---------------------------------------------------------------------

 SCF Done:  E(RHF) =  -1055.29961947     A.U. after    2 cycles

 The electronic state is 1-A.
 Alpha  occ. eigenvalues --  -93.93570 -84.39482 -26.47138 -26.45974 -11.34408
 Alpha  occ. eigenvalues --  -11.26134 -11.25599  -8.21957  -6.85086  -6.19765
 Alpha  occ. eigenvalues --   -6.19566  -6.19368  -4.37909  -4.37302  -4.36231
 Alpha  occ. eigenvalues --   -1.60916  -1.56197  -1.14531  -0.98872  -0.98050
 Alpha  occ. eigenvalues --   -0.86968  -0.74609  -0.69702  -0.69477  -0.68194
 Alpha  occ. eigenvalues --   -0.63703  -0.63229  -0.63161  -0.62928  -0.60453
 Alpha  occ. eigenvalues --   -0.57392  -0.56843  -0.54584  -0.51338  -0.41324
 Alpha  occ. eigenvalues --   -0.37663  -0.34768
 Alpha virt. eigenvalues --    0.02959   0.03351   0.04255   0.05078   0.05745
 Alpha virt. eigenvalues --    0.06322   0.07156   0.07764   0.09208   0.09436
 Alpha virt. eigenvalues --    0.10498   0.11846   0.12464   0.14125   0.14407

 Mulliken charges:
               1
     1  H   -0.011077
     2  H    0.303961
     3  H    0.285622
     4  H    0.172434
     5  H    0.257415
     6  C   -0.463855
     7  C   -0.531610
     8  S    0.167234
     9  C   -0.420184
    10  H    0.255016
    11  P    1.514841
    12  F   -0.790559
    13  F   -0.857491
    14  H    0.118253
 Sum of Mulliken charges =  -0.00000

 Dipole moment (field-independent basis, Debye):
    X=              4.0204    Y=              1.2633    Z=              0.6196  Tot=              4.2595

 Test job not archived.
 1\1\GINC-SE125\SP\RHF\Aug-CC-pVDZ\C3H7F2P1S1\OHZDE\09-Apr-2025\0\\#t h
 f aug-cc-pvdz iop(5/13=1,5/36=2,99/5=2) pseudo=read geom=check guess=(
 read,tcheck) scf=(maxcycle=1)\\title\\0,1\H,0,-0.82524406,-0.11851319,
 -2.18150719\H,0,-1.6981931,1.21808686,-2.95919937\H,0,-0.71897066,0.14
 764096,-3.93512177\H,0,1.41759528,3.22175764,-3.68330427\H,0,0.7352472
 6,2.04678605,-4.82844268\C,0,-0.77357806,0.63435768,-2.9583614\C,0,0.3
 925438,1.55581911,-2.78347778\S,0,1.39271927,1.4865874,-1.50157001\C,0
 ,0.57891903,2.56210758,-3.87735604\H,0,-0.33203334,3.15446018,-3.99493

 Normal termination of Gaussian 16 at Wed Apr  9 19:34:27 2025.
