 Gaussian 16, Revision C.01,

 ----------------------------------------------------------------------
 #t hf aug-cc-pvdz symm=none int=(grid=ultrafine) guess=(read,tcheck) s
 table=(opt,rrhf)
 ----------------------------------------------------------------------
 -----
 title
 -----
 Symbolic Z-matrix:
 Charge =  0 Multiplicity = 1

 SCF Done:  E(RHF) =  -875.457684191     A.U. after   12 cycles
 Normal termination of Gaussian 16 at Wed Apr  9 04:10:28 2025.
 Gaussian 16:  ES64L-G16RevC.01  3-Jul-2019

 ----------------------------------------------------------------------
 #t hf aug-cc-pvdz iop(5/13=1,5/36=2,99/5=2) pseudo=read geom=check gue
 ss=(read,tcheck) scf=(maxcycle=1)
 ----------------------------------------------------------------------
 -----
 title
 -----
 Structure from the checkpoint file:  "HB300SPXx10_1194_4.24_0.95_methanethiol_methanethiol_dimer_mol1.chk"
 Charge =  0 Multiplicity = 1

                         Standard orientation:
 ---------------------------------------------------------------------
 Center     Atomic      Atomic             Coordinates (Angstroms)
 Number     Number       Type             X           Y           Z
 ---------------------------------------------------------------------
      1          1           0       -0.956411    0.920830    1.352384
      2          1           0       -2.717224    0.939237    1.214855
      3          1           0       -1.744307    1.837046    0.044021
      4          1           0       -0.627533   -0.339305   -0.989053
      5          6           0       -1.787582    0.938121    0.652049
      6         16           0       -1.810391   -0.557395   -0.387321
      7          1           0        2.185918   -0.466316    1.749753
      8          1           0        2.166159   -1.713073    0.497892
      9          1           0        0.635519   -1.031686    1.057321
     10          1           0        1.269298    1.444054    0.142585
     11          6           0        1.679003   -0.808744    0.852787
     12         16           0        1.837894    0.409455   -0.493852
 ---------------------------------------------------------------------

 SCF Done:  E(RHF) =  -875.672577804     A.U. after    2 cycles

 The electronic state is 1-A.
 Alpha  occ. eigenvalues --  -93.95685 -93.94222 -11.27169 -11.26924  -8.23771
 Alpha  occ. eigenvalues --   -8.22338  -6.21629  -6.21480  -6.21256  -6.20197
 Alpha  occ. eigenvalues --   -6.20057  -6.19828  -1.07186  -1.05695  -0.89184
 Alpha  occ. eigenvalues --   -0.88444  -0.62964  -0.61827  -0.60673  -0.59196
 Alpha  occ. eigenvalues --   -0.54328  -0.53332  -0.47529  -0.46688  -0.37146
 Alpha  occ. eigenvalues --   -0.36094
 Alpha virt. eigenvalues --    0.03217   0.03779   0.04518   0.04861   0.06983
 Alpha virt. eigenvalues --    0.07238   0.07408   0.09008   0.10451   0.12485
 Alpha virt. eigenvalues --    0.12887   0.13169   0.14681   0.14840   0.15275

 Mulliken charges:
               1
     1  H    0.156304
     2  H    0.121158
     3  H    0.140683
     4  H    0.451034
     5  C   -0.673457
     6  S   -0.169505
     7  H    0.133869
     8  H    0.168081
     9  H    0.133703
    10  H    0.356493
    11  C   -0.630026
    12  S   -0.188335
 Sum of Mulliken charges =  -0.00000

 Dipole moment (field-independent basis, Debye):
    X=              0.5286    Y=              0.9269    Z=              1.9971  Tot=              2.2643

 Test job not archived.
 1\1\GINC-SE038\SP\RHF\Aug-CC-pVDZ\C2H8S2\OHZDE\09-Apr-2025\0\\#t hf au
 g-cc-pvdz iop(5/13=1,5/36=2,99/5=2) pseudo=read geom=check guess=(read
 ,tcheck) scf=(maxcycle=1)\\title\\0,1\H,0,1.48841111,-0.83932977,-0.94
 699875\H,0,2.60301323,-1.84400864,-0.01533608\H,0,2.55978836,-0.100175
 65,0.26866848\H,0,0.07877426,-0.11956038,1.21477831\C,0,1.95766928,-0.
 9705586,0.02469451\S,0,0.71991769,-1.29709475,1.32035013\H,0,-1.525426
 88,0.08911942,-2.36512183\H,0,-2.59532613,0.02145707,-0.9605981\H,0,-1
 .04766741,-0.82808153,-0.90452913\H,0,0.36092228,1.48292748,-1.1114554

 Normal termination of Gaussian 16 at Wed Apr  9 04:10:31 2025.
