 Gaussian 16, Revision C.01,

 ----------------------------------------------------------------------
 #t hf aug-cc-pvdz symm=none int=(grid=ultrafine) guess=(read,tcheck) s
 table=(opt,rrhf)
 ----------------------------------------------------------------------
 -----
 title
 -----
 Symbolic Z-matrix:
 Charge =  0 Multiplicity = 1

 SCF Done:  E(RHF) =  -704.618725753     A.U. after   13 cycles
 Normal termination of Gaussian 16 at Wed Apr  9 19:26:19 2025.
 Gaussian 16:  ES64L-G16RevC.01  3-Jul-2019

 ----------------------------------------------------------------------
 #t hf aug-cc-pvdz iop(5/13=1,5/36=2,99/5=2) pseudo=read geom=check gue
 ss=(read,tcheck) scf=(maxcycle=1)
 ----------------------------------------------------------------------
 -----
 title
 -----
 Structure from the checkpoint file:  "HB300SPXx10_1124_4.16_0.95_aceticacid_dimethylsulfide_dimer_mol1.chk"
 Charge =  0 Multiplicity = 1

                         Standard orientation:
 ---------------------------------------------------------------------
 Center     Atomic      Atomic             Coordinates (Angstroms)
 Number     Number       Type             X           Y           Z
 ---------------------------------------------------------------------
      1          6           0        0.270594    1.786186   -0.000000
      2          8           0       -0.870129    1.384083    0.000000
      3          8           0        1.337006    0.978455   -0.000000
      4          1           0        1.035610    0.035918   -0.000000
      5          6           0        0.663826    3.237808   -0.000000
      6          1           0       -0.224076    3.860133   -0.000000
      7          1           0        1.272696    3.454279    0.876781
      8          1           0        1.272696    3.454279   -0.876781
      9          1           0       -1.668411   -2.370132    1.379195
     10          1           0       -1.280297   -0.626692    1.315483
     11          1           0       -0.294897   -1.733895    2.299403
     12          1           0       -0.294897   -1.733895   -2.299403
     13          1           0       -1.280297   -0.626692   -1.315483
     14          1           0       -1.668411   -2.370132   -1.379195
     15          6           0       -0.870129   -1.631219    1.382643
     16         16           0        0.264394   -1.925801    0.000000
     17          6           0       -0.870129   -1.631219   -1.382643
 ---------------------------------------------------------------------

 SCF Done:  E(RHF) =  -705.000380865     A.U. after    2 cycles

 The electronic state is 1-A'.
 Alpha  occ. eigenvalues --  -93.95004 -20.57630 -20.52768 -11.38783 -11.26067
 Alpha  occ. eigenvalues --  -11.26040 -11.24725  -8.23164  -6.20986  -6.20834
 Alpha  occ. eigenvalues --   -6.20648  -1.53335  -1.44004  -1.09320  -1.02387
 Alpha  occ. eigenvalues --   -0.96052  -0.83682  -0.81276  -0.70252  -0.67714
 Alpha  occ. eigenvalues --   -0.64293  -0.61929  -0.61281  -0.58804  -0.57504
 Alpha  occ. eigenvalues --   -0.57501  -0.55968  -0.55073  -0.50857  -0.46303
 Alpha  occ. eigenvalues --   -0.45209  -0.43595  -0.36009
 Alpha virt. eigenvalues --    0.03754   0.03900   0.04019   0.04870   0.05983
 Alpha virt. eigenvalues --    0.06113   0.07071   0.07415   0.08037   0.08920
 Alpha virt. eigenvalues --    0.10923   0.11367   0.13196   0.14434   0.14804

 Mulliken charges:
               1
     1  C    1.843374
     2  O   -1.222632
     3  O   -1.439347
     4  H    0.852107
     5  C   -0.524041
     6  H    0.180887
     7  H    0.230420
     8  H    0.230420
     9  H    0.149171
    10  H    0.158267
    11  H    0.154725
    12  H    0.154725
    13  H    0.158267
    14  H    0.149171
    15  C   -0.539420
    16  S    0.003324
    17  C   -0.539420
 Sum of Mulliken charges =   0.00000

 Dipole moment (field-independent basis, Debye):
    X=             -0.3239    Y=              0.3499    Z=             -0.0000  Tot=              0.4768

 Test job not archived.
 1\1\GINC-SE231\SP\RHF\Aug-CC-pVDZ\C4H10O2S1\OHZDE\09-Apr-2025\0\\#t hf
  aug-cc-pvdz iop(5/13=1,5/36=2,99/5=2) pseudo=read geom=check guess=(r
 ead,tcheck) scf=(maxcycle=1)\\title\\0,1\C,0,0.08152563,1.86646531,0.\
 O,0,1.12794826,1.25988757,0.\O,0,-1.11612638,1.27040068,0.\H,0,-0.9946
 6015,0.28833063,0.\C,0,-0.03582077,3.36582142,0.\H,0,0.95204799,3.8127
 8193,0.\H,0,-0.5940149,3.69140047,-0.87678098\H,0,-0.5940149,3.6914004
 7,0.87678098\H,0,1.21651999,-2.57723913,-1.37919498\H,0,1.15829343,-0.
 79207113,-1.31548339\H,0,-0.01526051,-1.69743449,-2.29940307\H,0,-0.01

 Normal termination of Gaussian 16 at Wed Apr  9 19:26:24 2025.
