 Gaussian 16, Revision C.01,

 ----------------------------------------------------------------------
 #t hf aug-cc-pvdz symm=none int=(grid=ultrafine) guess=(read,tcheck) s
 table=(opt,rrhf)
 ----------------------------------------------------------------------
 -----
 title
 -----
 Symbolic Z-matrix:
 Charge =  0 Multiplicity = 1

 SCF Done:  E(RHF) =  -858.791021812     A.U. after   11 cycles

 1\1\GINC-SE026\Stability\RHF\Aug-CC-pVDZ\Cl1H3S1\OHZDE\09-Apr-2025\0\\
 #t hf aug-cc-pvdz symm=none int=(grid=ultrafine) guess=(read,tcheck) s
 table=(opt,rrhf)\\title\\0,1\H,0,-0.07574771,0.51696812,0.\Cl,0,0.0020
 5903,1.81286821,0.\H,0,0.86945259,-1.81115562,0.97032462\H,0,0.8694525
 9,-1.81115562,-0.97032462\S,0,-0.05579452,-1.75764019,0.\\Version=ES64
 L-G16RevC.01\HF=-858.7910218\RMSD=3.722e-09\Dipole=0.4287412,-0.916658
 3,0.\Quadrupole=0.5708178,-2.0925338,1.5217161,-1.7364232,0.,0.\PG=Unk
 nown\\@

 Normal termination of Gaussian 16 at Wed Apr  9 19:30:42 2025.
 Gaussian 16:  ES64L-G16RevC.01  3-Jul-2019

 ----------------------------------------------------------------------
 #t hf aug-cc-pvdz iop(5/13=1,5/36=2,99/5=2) pseudo=read geom=check gue
 ss=(read,tcheck) scf=(maxcycle=1)
 ----------------------------------------------------------------------
 -----
 title
 -----
 Structure from the checkpoint file:  "HB300SPXx10_1354_4.40_0.95_hydrogenchloride_sulfane_dimer_mol1.chk"
 Charge =  0 Multiplicity = 1

                         Standard orientation:
 ---------------------------------------------------------------------
 Center     Atomic      Atomic             Coordinates (Angstroms)
 Number     Number       Type             X           Y           Z
 ---------------------------------------------------------------------
      1          1           0       -0.106668    0.526665   -0.000000
      2         17           0       -0.049866    1.823656   -0.000000
      3          1           0        0.876126   -1.785840    0.970325
      4          1           0        0.876126   -1.785840   -0.970325
      5         16           0       -0.049866   -1.747321    0.000000
 ---------------------------------------------------------------------

 SCF Done:  E(RHF) =  -858.933166903     A.U. after    2 cycles

 The electronic state is 1-A'.
 Alpha  occ. eigenvalues -- -105.55928 -93.98958 -10.60737  -8.27071  -7.77710
 Alpha  occ. eigenvalues --   -7.77344  -7.77343  -6.24930  -6.24816  -6.24592
 Alpha  occ. eigenvalues --   -1.05757  -1.04091  -0.62134  -0.61860  -0.53330
 Alpha  occ. eigenvalues --   -0.46631  -0.46617  -0.41775
 Alpha virt. eigenvalues --    0.03031   0.05461   0.06560   0.09828   0.10350
 Alpha virt. eigenvalues --    0.12658   0.15673   0.15734   0.16151   0.16867
 Alpha virt. eigenvalues --    0.19001   0.21565   0.25056   0.26390   0.26664

 Mulliken charges:
               1
     1  H    0.290901
     2  Cl  -0.191469
     3  H    0.313870
     4  H    0.313870
     5  S   -0.727171
 Sum of Mulliken charges =   0.00000

 Dipole moment (field-independent basis, Debye):
    X=              1.1768    Y=             -2.3398    Z=             -0.0000  Tot=              2.6191

 Test job not archived.
 1\1\GINC-SE026\SP\RHF\Aug-CC-pVDZ\Cl1H3S1\OHZDE\09-Apr-2025\0\\#t hf a
 ug-cc-pvdz iop(5/13=1,5/36=2,99/5=2) pseudo=read geom=check guess=(rea
 d,tcheck) scf=(maxcycle=1)\\title\\0,1\H,0,-0.07574771,0.51696812,0.\C
 l,0,0.00205903,1.81286821,0.\H,0,0.86945259,-1.81115562,0.97032462\H,0
 ,0.86945259,-1.81115562,-0.97032462\S,0,-0.05579452,-1.75764019,0.\\Ve
 rsion=ES64L-G16RevC.01\State=1-A'\HF=-858.9331669\RMSD=4.639e-03\Dipol
 e=0.4480239,-0.9279451,0.\Quadrupole=0.5535477,-2.1101728,1.5566251,-1
 .7548852,0.,0.\PG=CS [SG(Cl1H1S1),X(H2)]\\@

 Normal termination of Gaussian 16 at Wed Apr  9 19:30:43 2025.
