 Gaussian 16, Revision C.01,

 ----------------------------------------------------------------------
 #t hf aug-cc-pvdz symm=none int=(grid=ultrafine) guess=(read,tcheck) s
 table=(opt,rrhf)
 ----------------------------------------------------------------------
 -----
 title
 -----
 Symbolic Z-matrix:
 Charge =  0 Multiplicity = 1

 SCF Done:  E(RHF) =  -989.365595184     A.U. after   13 cycles
 Normal termination of Gaussian 16 at Wed Apr  9 19:27:04 2025.
 Gaussian 16:  ES64L-G16RevC.01  3-Jul-2019

 ----------------------------------------------------------------------
 #t hf aug-cc-pvdz iop(5/13=1,5/36=2,99/5=2) pseudo=read geom=check gue
 ss=(read,tcheck) scf=(maxcycle=1)
 ----------------------------------------------------------------------
 -----
 title
 -----
 Structure from the checkpoint file:  "HB300SPXx10_1145_4.19_1.00_methanol_dimethyldisulfide_dimer_mol1.chk"
 Charge =  0 Multiplicity = 1

                         Standard orientation:
 ---------------------------------------------------------------------
 Center     Atomic      Atomic             Coordinates (Angstroms)
 Number     Number       Type             X           Y           Z
 ---------------------------------------------------------------------
      1          8           0        2.805431    0.207203   -0.141433
      2          1           0        1.978506    0.378497   -0.608138
      3          6           0        2.820838   -1.157666    0.247008
      4          1           0        3.742780   -1.324440    0.799877
      5          1           0        1.976795   -1.409118    0.895638
      6          1           0        2.808919   -1.829710   -0.615853
      7          1           0       -3.150538   -1.732812    0.579290
      8          1           0       -3.286174   -0.461728   -0.655300
      9          1           0       -2.978611   -0.031789    1.049093
     10          1           0        0.693059    1.366355    1.384300
     11          1           0       -1.010145    1.918046    1.422598
     12          1           0        0.204982    2.827884    0.503389
     13          6           0       -2.786582   -0.756286    0.262713
     14         16           0       -0.999462   -0.952918   -0.021286
     15         16           0       -0.436523    0.897629   -0.704763
     16          6           0       -0.108797    1.834922    0.822504
 ---------------------------------------------------------------------

 SCF Done:  E(RHF) =  -989.700238560     A.U. after    2 cycles

 The electronic state is 1-A.
 Alpha  occ. eigenvalues --  -93.97888 -93.97599 -20.53027 -11.27675 -11.27343
 Alpha  occ. eigenvalues --  -11.26890  -8.25874  -8.25612  -6.23683  -6.23470
 Alpha  occ. eigenvalues --   -6.23418  -6.23261  -6.23209  -6.22982  -1.42883
 Alpha  occ. eigenvalues --   -1.12732  -1.03384  -0.92722  -0.91643  -0.81783
 Alpha  occ. eigenvalues --   -0.68034  -0.62654  -0.61752  -0.61323  -0.60305
 Alpha  occ. eigenvalues --   -0.59400  -0.58184  -0.54906  -0.50880  -0.49173
 Alpha  occ. eigenvalues --   -0.45767  -0.42949  -0.37664  -0.36634
 Alpha virt. eigenvalues --    0.03188   0.03833   0.04378   0.04816   0.05794
 Alpha virt. eigenvalues --    0.06148   0.06812   0.07933   0.08159   0.09183
 Alpha virt. eigenvalues --    0.09964   0.11163   0.13048   0.13546   0.14054

 Mulliken charges:
               1
     1  O   -1.100442
     2  H    0.571705
     3  C    0.475874
     4  H    0.008493
     5  H    0.084311
     6  H    0.079509
     7  H    0.170092
     8  H    0.227165
     9  H    0.177696
    10  H    0.112567
    11  H    0.151219
    12  H    0.205269
    13  C   -0.819953
    14  S    0.278106
    15  S   -0.051345
    16  C   -0.570268
 Sum of Mulliken charges =  -0.00000

 Dipole moment (field-independent basis, Debye):
    X=             -3.0726    Y=             -0.0052    Z=              1.4154  Tot=              3.3830

 Test job not archived.
 1\1\GINC-SE340\SP\RHF\Aug-CC-pVDZ\C3H10O1S2\OHZDE\09-Apr-2025\0\\#t hf
  aug-cc-pvdz iop(5/13=1,5/36=2,99/5=2) pseudo=read geom=check guess=(r
 ead,tcheck) scf=(maxcycle=1)\\title\\0,1\O,0,-0.42925951,1.22968046,-2
 .50380826\H,0,-0.36156068,1.36890772,-1.5514469\C,0,-1.37991091,0.2017
 0921,-2.7351714\H,0,-1.41855104,0.0350798,-3.80950666\H,0,-1.09677682,
 -0.73598734,-2.24842974\H,0,-2.37984798,0.48334645,-2.39294418\H,0,-0.
 52987596,-2.5686612,2.52800425\H,0,-0.06444334,-0.99788072,3.21668684\
 H,0,1.10239216,-1.93628062,2.24596499\H,0,1.73014455,-0.07289244,-1.17

 Normal termination of Gaussian 16 at Wed Apr  9 19:27:09 2025.
