 Gaussian 16, Revision C.01,

 ----------------------------------------------------------------------
 #t hf aug-cc-pvdz symm=none int=(grid=ultrafine) guess=(read,tcheck) s
 table=(opt,rrhf)
 ----------------------------------------------------------------------
 -----
 title
 -----
 Symbolic Z-matrix:
 Charge =  0 Multiplicity = 1

 SCF Done:  E(RHF) =  -1091.85399278     A.U. after   14 cycles
 Normal termination of Gaussian 16 at Wed Apr  9 19:32:18 2025.
 Gaussian 16:  ES64L-G16RevC.01  3-Jul-2019

 ----------------------------------------------------------------------
 #t hf aug-cc-pvdz iop(5/13=1,5/36=2,99/5=2) pseudo=read geom=check gue
 ss=(read,tcheck) scf=(maxcycle=1)
 ----------------------------------------------------------------------
 -----
 title
 -----
 Structure from the checkpoint file:  "HB300SPXx10_1406_5.03_1.05_dimethylsulfoxide_phosphineF2_dimer_mol1.chk"
 Charge =  0 Multiplicity = 1

                         Standard orientation:
 ---------------------------------------------------------------------
 Center     Atomic      Atomic             Coordinates (Angstroms)
 Number     Number       Type             X           Y           Z
 ---------------------------------------------------------------------
      1          1           0        2.172244    1.672890   -1.450251
      2          1           0        2.959343    1.744183    0.144785
      3          1           0        1.168783    1.836302    0.016512
      4          1           0        1.582833   -1.584934    1.683947
      5          1           0        0.895734    0.059552    1.776538
      6          6           0        2.077834    1.411162   -0.399809
      7         16           0        1.981653   -0.395918   -0.321174
      8          8           0        0.685649   -0.787246   -0.958985
      9          6           0        1.753442   -0.533207    1.470856
     10          1           0        2.661912   -0.197052    1.966853
     11         15           0       -1.884434   -0.382383   -0.098567
     12          9           0       -3.413618    0.116964    0.046957
     13          9           0       -1.207729    0.945788    0.529013
     14          1           0       -1.761506    0.004950   -1.459220
 ---------------------------------------------------------------------

 SCF Done:  E(RHF) =  -1092.30294583     A.U. after    2 cycles

 The electronic state is 1-A.
 Alpha  occ. eigenvalues --  -94.07941 -84.38886 -26.46465 -26.45374 -20.50809
 Alpha  occ. eigenvalues --  -11.28034 -11.27969  -8.34841  -6.84451  -6.32705
 Alpha  occ. eigenvalues --   -6.32559  -6.32337  -4.37190  -4.36658  -4.35583
 Alpha  occ. eigenvalues --   -1.59967  -1.55355  -1.44895  -1.09873  -0.99219
 Alpha  occ. eigenvalues --   -0.86431  -0.84648  -0.69017  -0.68826  -0.67612
 Alpha  occ. eigenvalues --   -0.65464  -0.64580  -0.64193  -0.62788  -0.60196
 Alpha  occ. eigenvalues --   -0.59725  -0.58908  -0.56290  -0.55077  -0.52944
 Alpha  occ. eigenvalues --   -0.43452  -0.38309  -0.35929
 Alpha virt. eigenvalues --    0.02857   0.03814   0.04793   0.05245   0.06658
 Alpha virt. eigenvalues --    0.06809   0.07661   0.08643   0.09467   0.10754
 Alpha virt. eigenvalues --    0.12260   0.12956   0.13008   0.14646   0.15196

 Mulliken charges:
               1
     1  H    0.190875
     2  H    0.196318
     3  H    0.185405
     4  H    0.197623
     5  H    0.186661
     6  C   -0.610843
     7  S    1.623881
     8  O   -1.464852
     9  C   -0.636198
    10  H    0.197888
    11  P    1.491561
    12  F   -0.788003
    13  F   -0.837104
    14  H    0.066788
 Sum of Mulliken charges =  -0.00000

 Dipole moment (field-independent basis, Debye):
    X=              4.2117    Y=              1.2102    Z=              1.5999  Tot=              4.6650

 Test job not archived.
 1\1\GINC-SE145\SP\RHF\Aug-CC-pVDZ\C2H7F2O1P1S1\OHZDE\09-Apr-2025\0\\#t
  hf aug-cc-pvdz iop(5/13=1,5/36=2,99/5=2) pseudo=read geom=check guess
 =(read,tcheck) scf=(maxcycle=1)\\title\\0,1\H,0,1.67395499,0.82417178,
 -3.38423362\H,0,0.49124302,-0.02078366,-4.41184902\H,0,0.89589517,-0.6
 6534236,-2.78340018\H,0,-2.718683,0.46280377,-2.2188292\H,0,-1.5421980
 9,-0.87905323,-2.20106353\C,0,0.76564588,0.22768029,-3.38836814\S,0,-0
 .5351395,1.25679703,-2.66046249\O,0,-0.17783951,1.44910918,-1.22000404
 \C,0,-1.85989706,0.022286,-2.71790313\H,0,-2.10168806,-0.18449539,-3.7

 Normal termination of Gaussian 16 at Wed Apr  9 19:32:23 2025.
