 Gaussian 16, Revision C.01,

 ----------------------------------------------------------------------
 #t hf aug-cc-pvdz symm=none int=(grid=ultrafine) guess=(read,tcheck) s
 table=(opt,rrhf)
 ----------------------------------------------------------------------
 -----
 title
 -----
 Symbolic Z-matrix:
 Charge =  0 Multiplicity = 1

 SCF Done:  E(RHF) =  -875.462291648     A.U. after   12 cycles
 Normal termination of Gaussian 16 at Wed Apr  9 04:10:28 2025.
 Gaussian 16:  ES64L-G16RevC.01  3-Jul-2019

 ----------------------------------------------------------------------
 #t hf aug-cc-pvdz iop(5/13=1,5/36=2,99/5=2) pseudo=read geom=check gue
 ss=(read,tcheck) scf=(maxcycle=1)
 ----------------------------------------------------------------------
 -----
 title
 -----
 Structure from the checkpoint file:  "HB300SPXx10_1215_4.26_1.00_sulfane_dimethylsulfide_dimer_mol1.chk"
 Charge =  0 Multiplicity = 1

                         Standard orientation:
 ---------------------------------------------------------------------
 Center     Atomic      Atomic             Coordinates (Angstroms)
 Number     Number       Type             X           Y           Z
 ---------------------------------------------------------------------
      1          1           0        1.207705   -0.020599   -0.567163
      2          1           0        2.731612    1.176056   -0.348893
      3         16           0        2.419199   -0.070191    0.034312
      4          1           0       -2.061442   -1.397934    1.167178
      5          1           0       -0.283665   -1.350600    1.080350
      6          1           0       -1.210035   -2.297413   -0.099092
      7          1           0       -1.284552    2.297830   -0.021225
      8          1           0       -0.311426    1.343327    1.113313
      9          1           0       -2.091680    1.327460    1.220926
     10          6           0       -1.203121   -1.389318    0.498445
     11         16           0       -1.296695    0.009636   -0.647376
     12          6           0       -1.239645    1.371109    0.545492
 ---------------------------------------------------------------------

 SCF Done:  E(RHF) =  -875.677568255     A.U. after    2 cycles

 The electronic state is 1-A.
 Alpha  occ. eigenvalues --  -93.95128 -93.94797 -11.26687 -11.26612  -8.23238
 Alpha  occ. eigenvalues --   -8.22903  -6.21117  -6.21000  -6.20761  -6.20733
 Alpha  occ. eigenvalues --   -6.20575  -6.20361  -1.09327  -1.00797  -0.96502
 Alpha  occ. eigenvalues --   -0.83375  -0.62717  -0.61711  -0.59273  -0.58311
 Alpha  occ. eigenvalues --   -0.57673  -0.51118  -0.50044  -0.45086  -0.38255
 Alpha  occ. eigenvalues --   -0.35220
 Alpha virt. eigenvalues --    0.03566   0.03796   0.04438   0.05207   0.06797
 Alpha virt. eigenvalues --    0.07137   0.07743   0.08970   0.10970   0.11673
 Alpha virt. eigenvalues --    0.13193   0.13813   0.14997   0.15875   0.16008

 Mulliken charges:
               1
     1  H    0.426060
     2  H    0.231089
     3  S   -0.605043
     4  H    0.166854
     5  H    0.101563
     6  H    0.160847
     7  H    0.159821
     8  H    0.126813
     9  H    0.169146
    10  C   -0.576177
    11  S    0.226415
    12  C   -0.587387
 Sum of Mulliken charges =  -0.00000

 Dipole moment (field-independent basis, Debye):
    X=             -1.0344    Y=              0.7846    Z=              1.1474  Tot=              1.7326

 Test job not archived.
 1\1\GINC-SE322\SP\RHF\Aug-CC-pVDZ\C2H8S2\OHZDE\09-Apr-2025\0\\#t hf au
 g-cc-pvdz iop(5/13=1,5/36=2,99/5=2) pseudo=read geom=check guess=(read
 ,tcheck) scf=(maxcycle=1)\\title\\0,1\H,0,0.94021613,0.77457481,-0.419
 26695\H,0,0.91265107,2.63108631,-1.01468344\S,0,1.34625135,1.9701562,0
 .06824785\H,0,-0.90149127,-1.89935314,1.82807399\H,0,0.11439273,-0.441
 61757,1.71293425\H,0,0.8105785,-2.04198454,1.39694649\H,0,-2.24493664,
 -0.08161239,-1.42238796\H,0,-1.66139166,0.71622525,0.0500786\H,0,-2.70
 970544,-0.72242428,0.16170789\C,0,-0.07995831,-1.42725245,1.29309902\S

 Normal termination of Gaussian 16 at Wed Apr  9 04:10:32 2025.
