 Gaussian 16, Revision C.01,

 ----------------------------------------------------------------------
 #t hf aug-cc-pvdz symm=none int=(grid=ultrafine) guess=(read,tcheck) s
 table=(opt,rrhf)
 ----------------------------------------------------------------------
 -----
 title
 -----
 Symbolic Z-matrix:
 Charge =  0 Multiplicity = 1

 SCF Done:  E(RHF) =  -897.825039147     A.U. after   11 cycles
 Normal termination of Gaussian 16 at Wed Apr  9 19:29:43 2025.
 Gaussian 16:  ES64L-G16RevC.01  3-Jul-2019

 ----------------------------------------------------------------------
 #t hf aug-cc-pvdz iop(5/13=1,5/36=2,99/5=2) pseudo=read geom=check gue
 ss=(read,tcheck) scf=(maxcycle=1)
 ----------------------------------------------------------------------
 -----
 title
 -----
 Structure from the checkpoint file:  "HB300SPXx10_1335_4.38_1.00_hydrogenchloride_methanethiol_dimer_mol1.chk"
 Charge =  0 Multiplicity = 1

                         Standard orientation:
 ---------------------------------------------------------------------
 Center     Atomic      Atomic             Coordinates (Angstroms)
 Number     Number       Type             X           Y           Z
 ---------------------------------------------------------------------
      1          1           0       -0.896916   -0.394667   -0.090823
      2         17           0       -2.123981    0.052642    0.004414
      3          1           0        0.719432    1.582895    0.556411
      4          1           0        1.545108    1.494970   -1.005040
      5          1           0        2.494623    1.388757    0.484688
      6          1           0        1.370129   -0.930416    1.232029
      7          6           0        1.548338    1.132512    0.019101
      8         16           0        1.349080   -0.676970   -0.085432
 ---------------------------------------------------------------------

 SCF Done:  E(RHF) =  -898.011668563     A.U. after    2 cycles

 The electronic state is 1-A.
 Alpha  occ. eigenvalues -- -105.55794 -93.97307 -11.28425 -10.60583  -8.25409
 Alpha  occ. eigenvalues --   -7.77551  -7.77195  -7.77193  -6.23255  -6.23109
 Alpha  occ. eigenvalues --   -6.22908  -1.08497  -1.04699  -0.90541  -0.63604
 Alpha  occ. eigenvalues --   -0.62895  -0.60000  -0.55557  -0.48856  -0.46486
 Alpha  occ. eigenvalues --   -0.46458  -0.38947
 Alpha virt. eigenvalues --    0.03168   0.04177   0.05121   0.05790   0.07897
 Alpha virt. eigenvalues --    0.10013   0.11139   0.12868   0.14187   0.14326
 Alpha virt. eigenvalues --    0.15685   0.16192   0.17070   0.18042   0.19327

 Mulliken charges:
               1
     1  H    0.319241
     2  Cl  -0.215614
     3  H    0.109573
     4  H    0.206239
     5  H    0.122600
     6  H    0.379272
     7  C   -0.591074
     8  S   -0.330238
 Sum of Mulliken charges =   0.00000

 Dipole moment (field-independent basis, Debye):
    X=              2.4925    Y=              0.9529    Z=              0.8274  Tot=              2.7938

 Test job not archived.
 1\1\GINC-SE097\SP\RHF\Aug-CC-pVDZ\C1H5Cl1S1\OHZDE\09-Apr-2025\0\\#t hf
  aug-cc-pvdz iop(5/13=1,5/36=2,99/5=2) pseudo=read geom=check guess=(r
 ead,tcheck) scf=(maxcycle=1)\\title\\0,1\H,0,-0.71323053,0.36081391,-0
 .38963987\Cl,0,-0.97574618,1.50432633,-0.9712843\H,0,1.72752532,0.5129
 9405,0.59107351\H,0,2.2526307,-0.89283618,-0.34461191\H,0,2.48488025,-
 0.88348739,1.40984595\H,0,-0.14875845,-0.8644661,1.92477559\C,0,1.8317
 7352,-0.56757529,0.60266668\S,0,0.20306945,-1.37660315,0.73552573\\Ver
 sion=ES64L-G16RevC.01\State=1-A\HF=-898.0116686\RMSD=4.996e-03\Dipole=

 Normal termination of Gaussian 16 at Wed Apr  9 19:29:45 2025.
