 Gaussian 16, Revision C.01,

 ----------------------------------------------------------------------
 #t hf aug-cc-pvdz symm=none int=(grid=ultrafine) guess=(read,tcheck) s
 table=(opt,rrhf)
 ----------------------------------------------------------------------
 -----
 title
 -----
 Symbolic Z-matrix:
 Charge =  0 Multiplicity = 1

 SCF Done:  E(RHF) =  -989.361302879     A.U. after   13 cycles
 Normal termination of Gaussian 16 at Wed Apr  9 19:27:11 2025.
 Gaussian 16:  ES64L-G16RevC.01  3-Jul-2019

 ----------------------------------------------------------------------
 #t hf aug-cc-pvdz iop(5/13=1,5/36=2,99/5=2) pseudo=read geom=check gue
 ss=(read,tcheck) scf=(maxcycle=1)
 ----------------------------------------------------------------------
 -----
 title
 -----
 Structure from the checkpoint file:  "HB300SPXx10_1143_4.19_0.90_methanol_dimethyldisulfide_dimer_mol1.chk"
 Charge =  0 Multiplicity = 1

                         Standard orientation:
 ---------------------------------------------------------------------
 Center     Atomic      Atomic             Coordinates (Angstroms)
 Number     Number       Type             X           Y           Z
 ---------------------------------------------------------------------
      1          8           0        2.635431    0.150891   -0.140105
      2          1           0        1.816726    0.350490   -0.610042
      3          6           0        2.600718   -1.212695    0.251585
      4          1           0        3.514253   -1.410962    0.808000
      5          1           0        1.746059   -1.432207    0.897906
      6          1           0        2.567655   -1.886008   -0.609733
      7          1           0       -3.149026   -1.633633    0.575359
      8          1           0       -3.234991   -0.361561   -0.662665
      9          1           0       -2.917945    0.061307    1.041759
     10          1           0        0.800239    1.328097    1.386269
     11          1           0       -0.882264    1.940427    1.417435
     12          1           0        0.367689    2.803967    0.500265
     13          6           0       -2.749323   -0.671529    0.257743
     14         16           0       -0.969440   -0.932634   -0.019668
     15         16           0       -0.338399    0.894910   -0.705549
     16          6           0        0.017534    1.823649    0.820631
 ---------------------------------------------------------------------

 SCF Done:  E(RHF) =  -989.696448856     A.U. after    2 cycles

 The electronic state is 1-A.
 Alpha  occ. eigenvalues --  -93.97984 -93.97685 -20.52398 -11.27743 -11.27308
 Alpha  occ. eigenvalues --  -11.26609  -8.25999  -8.25702  -6.23802  -6.23588
 Alpha  occ. eigenvalues --   -6.23507  -6.23393  -6.23298  -6.23069  -1.42553
 Alpha  occ. eigenvalues --   -1.12903  -1.03486  -0.92814  -0.91438  -0.81926
 Alpha  occ. eigenvalues --   -0.68172  -0.62677  -0.61864  -0.61385  -0.59829
 Alpha  occ. eigenvalues --   -0.59432  -0.57867  -0.54988  -0.50967  -0.49067
 Alpha  occ. eigenvalues --   -0.45856  -0.42582  -0.37733  -0.36675
 Alpha virt. eigenvalues --    0.03156   0.03819   0.04364   0.04844   0.05818
 Alpha virt. eigenvalues --    0.06201   0.06827   0.07980   0.08158   0.09156
 Alpha virt. eigenvalues --    0.10054   0.11258   0.13123   0.13498   0.14038

 Mulliken charges:
               1
     1  O   -1.143498
     2  H    0.705985
     3  C    0.479803
     4  H    0.001753
     5  H    0.091344
     6  H    0.069878
     7  H    0.168221
     8  H    0.229059
     9  H    0.177032
    10  H    0.109376
    11  H    0.147201
    12  H    0.194025
    13  C   -0.814798
    14  S    0.282784
    15  S   -0.163021
    16  C   -0.535145
 Sum of Mulliken charges =  -0.00000

 Dipole moment (field-independent basis, Debye):
    X=             -3.1538    Y=              0.1341    Z=              1.4165  Tot=              3.4599

 Test job not archived.
 1\1\GINC-SE173\SP\RHF\Aug-CC-pVDZ\C3H10O1S2\OHZDE\09-Apr-2025\0\\#t hf
  aug-cc-pvdz iop(5/13=1,5/36=2,99/5=2) pseudo=read geom=check guess=(r
 ead,tcheck) scf=(maxcycle=1)\\title\\0,1\O,0,-0.42925951,1.22968046,-2
 .50380826\H,0,-0.36156068,1.36890772,-1.5514469\C,0,-1.37991091,0.2017
 0921,-2.7351714\H,0,-1.41855104,0.0350798,-3.80950666\H,0,-1.09677682,
 -0.73598734,-2.24842974\H,0,-2.37984798,0.48334645,-2.39294418\H,0,-0.
 61558151,-2.51483719,2.30246143\H,0,-0.15014888,-0.94405671,2.99114402
 \H,0,1.01668661,-1.88245661,2.02042217\H,0,1.64443901,-0.01906843,-1.3

 Normal termination of Gaussian 16 at Wed Apr  9 19:27:16 2025.
