 Gaussian 16, Revision C.01,

 ----------------------------------------------------------------------
 #t hf aug-cc-pvdz symm=none int=(grid=ultrafine) guess=(read,tcheck) s
 table=(opt,rrhf)
 ----------------------------------------------------------------------
 -----
 title
 -----
 Symbolic Z-matrix:
 Charge =  0 Multiplicity = 1

 SCF Done:  E(RHF) =  -215.884816941     A.U. after   13 cycles
 Normal termination of Gaussian 16 at Wed Apr  9 19:31:46 2025.
 Gaussian 16:  ES64L-G16RevC.01  3-Jul-2019

 ----------------------------------------------------------------------
 #t hf aug-cc-pvdz iop(5/13=1,5/36=2,99/5=2) pseudo=read geom=check gue
 ss=(read,tcheck) scf=(maxcycle=1)
 ----------------------------------------------------------------------
 -----
 title
 -----
 Structure from the checkpoint file:  "HB300SPXx10_1412_5.04_0.85_ethyne_methylfluoride_dimer_mol1.chk"
 Charge =  0 Multiplicity = 1

                         Standard orientation:
 ---------------------------------------------------------------------
 Center     Atomic      Atomic             Coordinates (Angstroms)
 Number     Number       Type             X           Y           Z
 ---------------------------------------------------------------------
      1          6           0        1.063161    1.042938    0.000000
      2          1           0        0.000000    0.996031    0.000000
      3          6           0        2.258822    1.079815    0.000000
      4          1           0        3.319300    1.119307    0.000000
      5          1           0       -1.450989   -1.925213    0.893893
      6          1           0       -1.450989   -1.925213   -0.893893
      7          1           0        0.009598   -1.411938    0.000000
      8          6           0       -1.078431   -1.429368    0.000000
      9          9           0       -1.543137   -0.112587    0.000000
 ---------------------------------------------------------------------

 SCF Done:  E(RHF) =  -216.102488942     A.U. after    2 cycles

 The electronic state is 1-A'.
 Alpha  occ. eigenvalues --  -26.45942 -11.32536 -11.24154 -11.23706  -1.57946
 Alpha  occ. eigenvalues --   -1.02782  -0.96048  -0.76895  -0.71046  -0.69472
 Alpha  occ. eigenvalues --   -0.67696  -0.65775  -0.53697  -0.53646  -0.41332
 Alpha  occ. eigenvalues --   -0.41283
 Alpha virt. eigenvalues --    0.03444   0.03969   0.05221   0.05540   0.06892
 Alpha virt. eigenvalues --    0.10973   0.11497   0.12423   0.13151   0.14374
 Alpha virt. eigenvalues --    0.14895   0.15933   0.17262   0.17428   0.18604

 Mulliken charges:
               1
     1  C    0.336741
     2  H   -0.105463
     3  C    0.078127
     4  H   -0.269251
     5  H    0.109157
     6  H    0.109157
     7  H    0.094321
     8  C    0.367812
     9  F   -0.720599
 Sum of Mulliken charges =  -0.00000

 Dipole moment (field-independent basis, Debye):
    X=              0.2730    Y=             -2.0404    Z=              0.0000  Tot=              2.0586

 Test job not archived.
 1\1\GINC-SE207\SP\RHF\Aug-CC-pVDZ\C3H5F1\OHZDE\09-Apr-2025\0\\#t hf au
 g-cc-pvdz iop(5/13=1,5/36=2,99/5=2) pseudo=read geom=check guess=(read
 ,tcheck) scf=(maxcycle=1)\\title\\0,1\C,0,0.31595013,-1.6374503,0.\H,0
 ,0.81540337,-0.69773821,0.\C,0,-0.25942719,-2.68621438,0.\H,0,-0.76390
 634,-3.61984886,0.\H,0,-0.964392,2.0356413,0.8938929\H,0,-0.964392,2.0
 356413,-0.8938929\H,0,-1.26388872,0.51673735,0.\C,0,-0.72641306,1.4629
 0386,0.\F,0,0.64394189,1.19459012,0.\\Version=ES64L-G16RevC.01\State=1
 -A'\HF=-216.1024889\RMSD=2.062e-02\Dipole=-0.7461077,0.3151183,0.\Quad

 Normal termination of Gaussian 16 at Wed Apr  9 19:31:48 2025.
