 Gaussian 16, Revision C.01,

 ----------------------------------------------------------------------
 #t hf aug-cc-pvdz symm=none int=(grid=ultrafine) guess=(read,tcheck) s
 table=(opt,rrhf)
 ----------------------------------------------------------------------
 -----
 title
 -----
 Symbolic Z-matrix:
 Charge =  0 Multiplicity = 1

 SCF Done:  E(RHF) =  -648.904360402     A.U. after   13 cycles
 Normal termination of Gaussian 16 at Wed Apr  9 19:25:40 2025.
 Gaussian 16:  ES64L-G16RevC.01  3-Jul-2019

 ----------------------------------------------------------------------
 #t hf aug-cc-pvdz iop(5/13=1,5/36=2,99/5=2) pseudo=read geom=check gue
 ss=(read,tcheck) scf=(maxcycle=1)
 ----------------------------------------------------------------------
 -----
 title
 -----
 Structure from the checkpoint file:  "HB300SPXx10_1082_4.12_0.85_methylamine_tetrahydrothiophene_dimer_mol1.chk"
 Charge =  0 Multiplicity = 1

                         Standard orientation:
 ---------------------------------------------------------------------
 Center     Atomic      Atomic             Coordinates (Angstroms)
 Number     Number       Type             X           Y           Z
 ---------------------------------------------------------------------
      1          7           0       -1.973250   -0.286666   -0.848907
      2          1           0       -1.295471   -0.884928   -0.388209
      3          1           0       -2.498721   -0.867345   -1.488623
      4          6           0       -2.861774    0.328524    0.135626
      5          1           0       -3.596331    0.951223   -0.374137
      6          1           0       -3.403597   -0.378298    0.774984
      7          1           0       -2.281126    0.983938    0.784901
      8          1           0        1.279317    0.591180    2.060458
      9          1           0       -0.467803    0.492361    1.822621
     10          1           0        0.868545    2.450399    0.563350
     11          1           0        0.519063   -0.611225   -1.787695
     12          1           0       -0.342281    1.536528   -0.342891
     13          1           0        2.162170   -1.128576   -1.371783
     14          1           0        1.705237    1.491322   -1.707316
     15          1           0        2.656967    0.981334   -0.313621
     16         16           0        0.697099   -1.210761    0.552349
     17          6           0        0.494735    0.450719    1.319585
     18          6           0        0.610358    1.462590    0.180837
     19          6           0        1.670980    0.923055   -0.777704
     20          6           0        1.311234   -0.536400   -1.046224
 ---------------------------------------------------------------------

 SCF Done:  E(RHF) =  -649.245863255     A.U. after    2 cycles

 The electronic state is 1-A.
 Alpha  occ. eigenvalues --  -93.93048 -15.46553 -11.26047 -11.25757 -11.24592
 Alpha  occ. eigenvalues --  -11.23612 -11.23135  -8.21216  -6.19008  -6.18892
 Alpha  occ. eigenvalues --   -6.18687  -1.16365  -1.13400  -0.98813  -0.98302
 Alpha  occ. eigenvalues --   -0.90022  -0.79642  -0.79520  -0.69605  -0.65542
 Alpha  occ. eigenvalues --   -0.64690  -0.62530  -0.60436  -0.57515  -0.55118
 Alpha  occ. eigenvalues --   -0.52833  -0.51078  -0.49790  -0.48470  -0.48332
 Alpha  occ. eigenvalues --   -0.43161  -0.41598  -0.34152
 Alpha virt. eigenvalues --    0.03571   0.03767   0.03883   0.04202   0.05682
 Alpha virt. eigenvalues --    0.05804   0.05872   0.06675   0.07429   0.08635
 Alpha virt. eigenvalues --    0.09064   0.09830   0.10369   0.11924   0.13339

 Mulliken charges:
               1
     1  N    0.060740
     2  H   -0.039942
     3  H    0.324046
     4  C   -0.378116
     5  H    0.074845
     6  H    0.081962
     7  H    0.013442
     8  H    0.111136
     9  H    0.154421
    10  H    0.142150
    11  H    0.175228
    12  H    0.205608
    13  H    0.128154
    14  H    0.118598
    15  H    0.102722
    16  S    0.237215
    17  C   -0.521204
    18  C   -0.264735
    19  C   -0.323643
    20  C   -0.402625
 Sum of Mulliken charges =  -0.00000

 Dipole moment (field-independent basis, Debye):
    X=             -0.0619    Y=              1.1043    Z=             -0.1653  Tot=              1.1183

 Test job not archived.
 1\1\GINC-SE108\SP\RHF\Aug-CC-pVDZ\C5H13N1S1\OHZDE\09-Apr-2025\0\\#t hf
  aug-cc-pvdz iop(5/13=1,5/36=2,99/5=2) pseudo=read geom=check guess=(r
 ead,tcheck) scf=(maxcycle=1)\\title\\0,1\N,0,-0.48023551,2.04199658,1.
 33183501\H,0,-0.98136805,1.22913012,0.98881982\H,0,-1.14375731,2.80345
 765,1.38144373\C,0,0.08991425,1.76981847,2.65020044\H,0,0.60698078,2.6
 5693888,3.01468146\H,0,-0.63523497,1.46399211,3.41346792\H,0,0.8338340
 5,0.97768014,2.5643137\H,0,0.87465781,-2.06752869,0.28767257\H,0,0.584
 83575,-0.92491904,1.60266577\H,0,2.60288754,-0.41345964,-0.09184874\H,

 Normal termination of Gaussian 16 at Wed Apr  9 19:25:49 2025.
