 Gaussian 16, Revision C.01,

 ----------------------------------------------------------------------
 #t hf aug-cc-pvdz symm=none int=(grid=ultrafine) guess=(read,tcheck) s
 table=(opt,rrhf)
 ----------------------------------------------------------------------
 -----
 title
 -----
 Symbolic Z-matrix:
 Charge =  0 Multiplicity = 1

 SCF Done:  E(RHF) =  -1121.34615847     A.U. after   13 cycles
 Normal termination of Gaussian 16 at Wed Apr  9 19:26:24 2025.
 Gaussian 16:  ES64L-G16RevC.01  3-Jul-2019

 ----------------------------------------------------------------------
 #t hf aug-cc-pvdz iop(5/13=1,5/36=2,99/5=2) pseudo=read geom=check gue
 ss=(read,tcheck) scf=(maxcycle=1)
 ----------------------------------------------------------------------
 -----
 title
 -----
 Structure from the checkpoint file:  "HB300SPXx10_1096_4.13_1.05_Nmethylacetamide_dimethyldisulfide_dimer_mol1.chk"
 Charge =  0 Multiplicity = 1

                         Standard orientation:
 ---------------------------------------------------------------------
 Center     Atomic      Atomic             Coordinates (Angstroms)
 Number     Number       Type             X           Y           Z
 ---------------------------------------------------------------------
      1          6           0       -1.852727    1.678585   -0.758112
      2          1           0       -1.189944    1.498803   -1.604611
      3          1           0       -1.278238    2.136244    0.044956
      4          1           0       -2.634983    2.359153   -1.082887
      5          6           0       -2.484919    0.360356   -0.356450
      6          8           0       -3.403842   -0.130236   -0.990282
      7          7           0       -1.945762   -0.224167    0.745313
      8          1           0       -1.109928    0.181237    1.133137
      9          6           0       -2.322939   -1.553988    1.177103
     10          1           0       -3.330489   -1.755535    0.826996
     11          1           0       -1.653946   -2.314221    0.768236
     12          1           0       -2.299525   -1.612102    2.263651
     13          1           0        2.825498   -2.193152   -1.746355
     14          1           0        3.413246   -1.943240   -0.087987
     15          1           0        3.608431   -0.662291   -1.315102
     16          1           0        1.300949    2.323354   -0.471001
     17          1           0        3.031628    1.910035   -0.350869
     18          1           0        2.224335    2.745038    0.989014
     19          6           0        2.967456   -1.460936   -0.952664
     20         16           0        1.307075   -0.835278   -0.547042
     21         16           0        1.662521    0.443746    1.016132
     22          6           0        2.098212    2.009691    0.195531
 ---------------------------------------------------------------------

 SCF Done:  E(RHF) =  -1121.81547465     A.U. after    2 cycles

 The electronic state is 1-A.
 Alpha  occ. eigenvalues --  -93.98352 -93.97995 -20.48898 -15.50998 -11.34153
 Alpha  occ. eigenvalues --  -11.28255 -11.27938 -11.25390 -11.23617  -8.26331
 Alpha  occ. eigenvalues --   -8.25990  -6.24144  -6.23934  -6.23798  -6.23716
 Alpha  occ. eigenvalues --   -6.23585  -6.23359  -1.43911  -1.22648  -1.13221
 Alpha  occ. eigenvalues --   -1.03881  -1.01437  -0.93411  -0.93278  -0.82269
 Alpha  occ. eigenvalues --   -0.80658  -0.69591  -0.66023  -0.63812  -0.63175
 Alpha  occ. eigenvalues --   -0.62122  -0.61646  -0.59950  -0.58490  -0.57646
 Alpha  occ. eigenvalues --   -0.55845  -0.55467  -0.54535  -0.51351  -0.50143
 Alpha  occ. eigenvalues --   -0.46200  -0.40878  -0.39947  -0.38193  -0.37039
 Alpha virt. eigenvalues --    0.02818   0.03140   0.03788   0.04233   0.05248
 Alpha virt. eigenvalues --    0.05543   0.05931   0.06645   0.07152   0.07894
 Alpha virt. eigenvalues --    0.08229   0.08672   0.08971   0.10558   0.11059

 Mulliken charges:
               1
     1  C   -0.422849
     2  H    0.265203
     3  H    0.157701
     4  H    0.162427
     5  C    0.426053
     6  O   -1.372265
     7  N    0.887894
     8  H    0.095404
     9  C   -0.397436
    10  H    0.060034
    11  H    0.151264
    12  H    0.104081
    13  H    0.169171
    14  H    0.207688
    15  H    0.178189
    16  H    0.122925
    17  H    0.149358
    18  H    0.205429
    19  C   -0.869147
    20  S    0.370533
    21  S    0.042777
    22  C   -0.694435
 Sum of Mulliken charges =  -0.00000

 Dipole moment (field-independent basis, Debye):
    X=              5.5304    Y=              1.4528    Z=              0.9262  Tot=              5.7926

 Test job not archived.
 1\1\GINC-SE098\SP\RHF\Aug-CC-pVDZ\C5H13N1O1S2\OHZDE\09-Apr-2025\0\\#t
 hf aug-cc-pvdz iop(5/13=1,5/36=2,99/5=2) pseudo=read geom=check guess=
 (read,tcheck) scf=(maxcycle=1)\\title\\0,1\C,0,-1.31055971,-0.36190707
 ,2.17525478\H,0,-0.76310857,0.57466921,2.28149083\H,0,-0.59510431,-1.1
 7658722,2.08130356\H,0,-1.91110445,-0.50300543,3.06969011\C,0,-2.23351
 851,-0.24400233,0.97818704\O,0,-3.28055753,0.37845097,1.03390772\N,0,-
 1.80028089,-0.8717422,-0.1463058\H,0,-0.86873727,-1.25332097,-0.144399
 63\C,0,-2.47826303,-0.73306099,-1.41840567\H,0,-3.52176476,-0.50262299

 Normal termination of Gaussian 16 at Wed Apr  9 19:26:36 2025.
