 Gaussian 16, Revision C.01,

 ----------------------------------------------------------------------
 #t hf aug-cc-pvdz symm=none int=(grid=ultrafine) guess=(read,tcheck) s
 table=(opt,rrhf)
 ----------------------------------------------------------------------
 -----
 title
 -----
 Symbolic Z-matrix:
 Charge =  0 Multiplicity = 1

 SCF Done:  E(RHF) =  -989.366455932     A.U. after   13 cycles
 Normal termination of Gaussian 16 at Wed Apr  9 19:27:07 2025.
 Gaussian 16:  ES64L-G16RevC.01  3-Jul-2019

 ----------------------------------------------------------------------
 #t hf aug-cc-pvdz iop(5/13=1,5/36=2,99/5=2) pseudo=read geom=check gue
 ss=(read,tcheck) scf=(maxcycle=1)
 ----------------------------------------------------------------------
 -----
 title
 -----
 Structure from the checkpoint file:  "HB300SPXx10_1146_4.19_1.05_methanol_dimethyldisulfide_dimer_mol1.chk"
 Charge =  0 Multiplicity = 1

                         Standard orientation:
 ---------------------------------------------------------------------
 Center     Atomic      Atomic             Coordinates (Angstroms)
 Number     Number       Type             X           Y           Z
 ---------------------------------------------------------------------
      1          8           0        2.890863    0.231579   -0.142064
      2          1           0        2.060754    0.390943   -0.607340
      3          6           0        2.927300   -1.133299    0.244938
      4          1           0        3.852480   -1.286808    0.796238
      5          1           0        2.088109   -1.398021    0.894583
      6          1           0        2.924127   -1.804571   -0.618600
      7          1           0       -3.155413   -1.773992    0.581036
      8          1           0       -3.311954   -0.503832   -0.652029
      9          1           0       -3.008259   -0.071063    1.052342
     10          1           0        0.642572    1.381569    1.383442
     11          1           0       -1.068643    1.907653    1.424889
     12          1           0        0.131318    2.836517    0.504786
     13          6           0       -2.806605   -0.791805    0.264921
     14         16           0       -1.017177   -0.961364   -0.021985
     15         16           0       -0.483057    0.898097   -0.704394
     16          6           0       -0.167069    1.838645    0.823346
 ---------------------------------------------------------------------

 SCF Done:  E(RHF) =  -989.700960322     A.U. after    2 cycles

 The electronic state is 1-A.
 Alpha  occ. eigenvalues --  -93.97824 -93.97557 -20.53257 -11.27640 -11.27352
 Alpha  occ. eigenvalues --  -11.27003  -8.25806  -8.25570  -6.23617  -6.23405
 Alpha  occ. eigenvalues --   -6.23374  -6.23191  -6.23167  -6.22940  -1.43025
 Alpha  occ. eigenvalues --   -1.12663  -1.03342  -0.92684  -0.91738  -0.81726
 Alpha  occ. eigenvalues --   -0.68030  -0.62637  -0.61698  -0.61294  -0.60495
 Alpha  occ. eigenvalues --   -0.59382  -0.58313  -0.54865  -0.50836  -0.49242
 Alpha  occ. eigenvalues --   -0.45720  -0.43094  -0.37605  -0.36595
 Alpha virt. eigenvalues --    0.03203   0.03839   0.04381   0.04802   0.05781
 Alpha virt. eigenvalues --    0.06124   0.06802   0.07899   0.08154   0.09191
 Alpha virt. eigenvalues --    0.09918   0.11114   0.12988   0.13566   0.14058

 Mulliken charges:
               1
     1  O   -1.083980
     2  H    0.522735
     3  C    0.473421
     4  H    0.010658
     5  H    0.083126
     6  H    0.083335
     7  H    0.170933
     8  H    0.226528
     9  H    0.177833
    10  H    0.119725
    11  H    0.153598
    12  H    0.208781
    13  C   -0.819705
    14  S    0.271542
    15  S   -0.009758
    16  C   -0.588773
 Sum of Mulliken charges =   0.00000

 Dipole moment (field-independent basis, Debye):
    X=             -3.0326    Y=             -0.0629    Z=              1.4137  Tot=              3.3465

 Test job not archived.
 1\1\GINC-SE454\SP\RHF\Aug-CC-pVDZ\C3H10O1S2\OHZDE\09-Apr-2025\0\\#t hf
  aug-cc-pvdz iop(5/13=1,5/36=2,99/5=2) pseudo=read geom=check guess=(r
 ead,tcheck) scf=(maxcycle=1)\\title\\0,1\O,0,-0.42925951,1.22968046,-2
 .50380826\H,0,-0.36156068,1.36890772,-1.5514469\C,0,-1.37991091,0.2017
 0921,-2.7351714\H,0,-1.41855104,0.0350798,-3.80950666\H,0,-1.09677682,
 -0.73598734,-2.24842974\H,0,-2.37984798,0.48334645,-2.39294418\H,0,-0.
 48702319,-2.59557321,2.64077566\H,0,-0.02159056,-1.02479272,3.32945825
 \H,0,1.14524493,-1.96319263,2.3587364\H,0,1.77299733,-0.09980445,-1.05

 Normal termination of Gaussian 16 at Wed Apr  9 19:27:13 2025.
