 Gaussian 16, Revision C.01,

 ----------------------------------------------------------------------
 #t hf aug-cc-pvdz symm=none int=(grid=ultrafine) guess=(read,tcheck) s
 table=(opt,rrhf)
 ----------------------------------------------------------------------
 -----
 title
 -----
 Symbolic Z-matrix:
 Charge =  0 Multiplicity = 1

 SCF Done:  E(RHF) =  -571.995137787     A.U. after   12 cycles
 Normal termination of Gaussian 16 at Wed Apr  9 19:24:59 2025.
 Gaussian 16:  ES64L-G16RevC.01  3-Jul-2019

 ----------------------------------------------------------------------
 #t hf aug-cc-pvdz iop(5/13=1,5/36=2,99/5=2) pseudo=read geom=check gue
 ss=(read,tcheck) scf=(maxcycle=1)
 ----------------------------------------------------------------------
 -----
 title
 -----
 Structure from the checkpoint file:  "HB300SPXx10_1074_4.11_0.95_methylamine_dimethylsulfide_dimer_mol1.chk"
 Charge =  0 Multiplicity = 1

                         Standard orientation:
 ---------------------------------------------------------------------
 Center     Atomic      Atomic             Coordinates (Angstroms)
 Number     Number       Type             X           Y           Z
 ---------------------------------------------------------------------
      1          7           0       -1.814152   -0.778376    0.152172
      2          1           0       -2.202127   -1.701637    0.013095
      3          1           0       -1.038904   -0.676001   -0.493510
      4          6           0       -2.823781    0.249772   -0.096517
      5          1           0       -2.380573    1.232664    0.061438
      6          1           0       -3.256073    0.238198   -1.103823
      7          1           0       -3.637770    0.142955    0.619958
      8          1           0        1.515708    1.631603    1.298060
      9          1           0       -0.136945    0.982547    1.122461
     10          1           0        0.431576    2.290174    0.062660
     11          1           0        1.988279   -2.027306   -0.172810
     12          1           0        0.746195   -1.497043    0.981041
     13          1           0        2.434813   -0.954891    1.163457
     14          6           0        0.723303    1.386999    0.593144
     15         16           0        1.308499    0.199218   -0.643983
     16          6           0        1.650296   -1.203458    0.451122
 ---------------------------------------------------------------------

 SCF Done:  E(RHF) =  -572.255134498     A.U. after    2 cycles

 The electronic state is 1-A.
 Alpha  occ. eigenvalues --  -93.93848 -15.47369 -11.25720 -11.25586 -11.24813
 Alpha  occ. eigenvalues --   -8.21950  -6.19780  -6.19625  -6.19410  -1.16578
 Alpha  occ. eigenvalues --   -1.08291  -0.95576  -0.90231  -0.82435  -0.69302
 Alpha  occ. eigenvalues --   -0.62629  -0.61013  -0.60791  -0.58275  -0.57348
 Alpha  occ. eigenvalues --   -0.56877  -0.52888  -0.50164  -0.44196  -0.42276
 Alpha  occ. eigenvalues --   -0.34492
 Alpha virt. eigenvalues --    0.03733   0.04041   0.04249   0.04942   0.05989
 Alpha virt. eigenvalues --    0.05994   0.06730   0.07488   0.08624   0.09101
 Alpha virt. eigenvalues --    0.10034   0.11727   0.13448   0.14099   0.14909

 Mulliken charges:
               1
     1  N    0.067429
     2  H    0.181602
     3  H    0.043879
     4  C   -0.427966
     5  H    0.034856
     6  H    0.093144
     7  H    0.077677
     8  H    0.117446
     9  H    0.203294
    10  H    0.164788
    11  H    0.154901
    12  H    0.132781
    13  H    0.161439
    14  C   -0.582323
    15  S    0.205008
    16  C   -0.627955
 Sum of Mulliken charges =  -0.00000

 Dipole moment (field-independent basis, Debye):
    X=             -0.5353    Y=             -0.3072    Z=              0.5891  Tot=              0.8532

 Test job not archived.
 1\1\GINC-SE018\SP\RHF\Aug-CC-pVDZ\C3H11N1S1\OHZDE\09-Apr-2025\0\\#t hf
  aug-cc-pvdz iop(5/13=1,5/36=2,99/5=2) pseudo=read geom=check guess=(r
 ead,tcheck) scf=(maxcycle=1)\\title\\0,1\N,0,-1.19251098,0.46771599,1.
 69699571\H,0,-2.17204653,0.34511648,1.91553075\H,0,-1.12099987,0.60068
 208,0.69419832\C,0,-0.64549649,1.62445241,2.40482331\H,0,0.40921091,1.
 73255139,2.15309408\H,0,-1.13947726,2.57752576,2.18276464\H,0,-0.70604
 436,1.45678733,3.47978713\H,0,2.28693658,-0.95079569,-0.32545119\H,0,1
 .1893999,-0.28754431,0.91506535\H,0,2.12734439,0.80169194,-0.1290163\H

 Normal termination of Gaussian 16 at Wed Apr  9 19:25:04 2025.
