 Gaussian 16, Revision C.01,

 ----------------------------------------------------------------------
 #t hf aug-cc-pvdz symm=none int=(grid=ultrafine) guess=(read,tcheck) s
 table=(opt,rrhf)
 ----------------------------------------------------------------------
 -----
 title
 -----
 Symbolic Z-matrix:
 Charge =  0 Multiplicity = 1

 SCF Done:  E(RHF) =  -783.965300516     A.U. after   15 cycles
 Normal termination of Gaussian 16 at Wed Apr  9 19:33:35 2025.
 Gaussian 16:  ES64L-G16RevC.01  3-Jul-2019

 ----------------------------------------------------------------------
 #t hf aug-cc-pvdz iop(5/13=1,5/36=2,99/5=2) pseudo=read geom=check gue
 ss=(read,tcheck) scf=(maxcycle=1)
 ----------------------------------------------------------------------
 -----
 title
 -----
 Structure from the checkpoint file:  "HB300SPXx10_1462_5.09_0.85_nitromethane_phosphineF2_dimer_mol1.chk"
 Charge =  0 Multiplicity = 1

                         Standard orientation:
 ---------------------------------------------------------------------
 Center     Atomic      Atomic             Coordinates (Angstroms)
 Number     Number       Type             X           Y           Z
 ---------------------------------------------------------------------
      1          1           0       -1.393046    1.735172    0.079236
      2          1           0       -2.613569    1.197617   -1.099575
      3          1           0       -2.983544    1.164698    0.668065
      4          6           0       -2.225722    1.059602   -0.097436
      5          7           0       -1.659660   -0.319737   -0.010353
      6          8           0       -1.790360   -0.922450    1.036037
      7          8           0       -1.065384   -0.735905   -0.994046
      8         15           0        1.472036   -0.188474   -0.394215
      9          9           0        2.839873   -0.059107    0.425073
     10          9           0        0.697812    1.063795    0.255206
     11          1           0        0.888359   -1.165188    0.464152
 ---------------------------------------------------------------------

 SCF Done:  E(RHF) =  -784.426031071     A.U. after    2 cycles

 The electronic state is 1-A.
 Alpha  occ. eigenvalues --  -84.40276 -26.48523 -26.47307 -20.61617 -20.60555
 Alpha  occ. eigenvalues --  -15.80560 -11.32267  -6.85951  -4.38826  -4.38147
 Alpha  occ. eigenvalues --   -4.37042  -1.69502  -1.62320  -1.57744  -1.53150
 Alpha  occ. eigenvalues --   -1.13928  -0.90890  -0.88235  -0.79243  -0.78708
 Alpha  occ. eigenvalues --   -0.77601  -0.71273  -0.70211  -0.69165  -0.64839
 Alpha  occ. eigenvalues --   -0.64161  -0.62713  -0.60827  -0.57505  -0.51230
 Alpha  occ. eigenvalues --   -0.50560  -0.47441  -0.37644
 Alpha virt. eigenvalues --    0.03022   0.04048   0.05030   0.05794   0.06453
 Alpha virt. eigenvalues --    0.08006   0.09642   0.09805   0.10734   0.13116
 Alpha virt. eigenvalues --    0.13868   0.15163   0.16403   0.17225   0.18440

 Mulliken charges:
               1
     1  H    0.244488
     2  H    0.167218
     3  H    0.116326
     4  C   -0.254764
     5  N    2.548261
     6  O   -1.347755
     7  O   -1.405030
     8  P    1.488109
     9  F   -0.780784
    10  F   -0.860329
    11  H    0.084260
 Sum of Mulliken charges =  -0.00000

 Dipole moment (field-independent basis, Debye):
    X=             -2.6591    Y=              2.0321    Z=             -0.6367  Tot=              3.4067

 Test job not archived.
 1\1\GINC-SE220\SP\RHF\Aug-CC-pVDZ\C1H4F2N1O2P1\OHZDE\09-Apr-2025\0\\#t
  hf aug-cc-pvdz iop(5/13=1,5/36=2,99/5=2) pseudo=read geom=check guess
 =(read,tcheck) scf=(maxcycle=1)\\title\\0,1\H,0,0.49481138,0.55069733,
 -2.50359179\H,0,-1.08891031,0.71291216,-3.29967626\H,0,-0.00441746,2.1
 4812453,-3.13671373\C,0,-0.34098337,1.21704881,-2.69950341\N,0,-0.9468
 7558,1.51662809,-1.36768821\O,0,-0.63929751,2.55888018,-0.82511637\O,0
 ,-1.68734525,0.66720154,-0.89420145\P,0,-0.04361695,-0.68472329,0.7084
 3138\F,0,1.08485584,-1.00736976,1.7953522\F,0,0.92439662,-0.30600885,-

 Normal termination of Gaussian 16 at Wed Apr  9 19:33:39 2025.
