 Gaussian 16, Revision C.01,

 ----------------------------------------------------------------------
 #t hf aug-cc-pvdz symm=none int=(grid=ultrafine) guess=(read,tcheck) s
 table=(opt,rrhf)
 ----------------------------------------------------------------------
 -----
 title
 -----
 Symbolic Z-matrix:
 Charge =  0 Multiplicity = 1

 SCF Done:  E(RHF) =  -1102.15661849     A.U. after   13 cycles
 Normal termination of Gaussian 16 at Wed Apr  9 19:26:34 2025.
 Gaussian 16:  ES64L-G16RevC.01  3-Jul-2019

 ----------------------------------------------------------------------
 #t hf aug-cc-pvdz iop(5/13=1,5/36=2,99/5=2) pseudo=read geom=check gue
 ss=(read,tcheck) scf=(maxcycle=1)
 ----------------------------------------------------------------------
 -----
 title
 -----
 Structure from the checkpoint file:  "HB300SPXx10_1115_4.15_1.00_aceticacid_dimethyldisulfide_dimer_mol1.chk"
 Charge =  0 Multiplicity = 1

                         Standard orientation:
 ---------------------------------------------------------------------
 Center     Atomic      Atomic             Coordinates (Angstroms)
 Number     Number       Type             X           Y           Z
 ---------------------------------------------------------------------
      1          6           0        2.856748   -0.069209   -0.037588
      2          8           0        2.508501    1.077227   -0.186132
      3          8           0        2.001896   -1.104073   -0.042403
      4          1           0        1.095835   -0.760952   -0.196480
      5          6           0        4.276235   -0.517474    0.172460
      6          1           0        4.934638    0.343758    0.191008
      7          1           0        4.354835   -1.070705    1.107255
      8          1           0        4.569392   -1.194240   -0.629141
      9          1           0       -4.699384   -0.694598    0.255191
     10          1           0       -3.975575   -0.094454   -1.252367
     11          1           0       -3.986749    0.928491    0.209903
     12          1           0       -0.454170    1.304758    1.563782
     13          1           0       -1.491055    2.352921    0.555646
     14          1           0        0.250763    2.179930    0.192388
     15          6           0       -3.901941   -0.086044   -0.168979
     16         16           0       -2.342171   -0.855289    0.368033
     17         16           0       -0.921864    0.285911   -0.576312
     18          6           0       -0.640566    1.677711    0.561367
 ---------------------------------------------------------------------

 SCF Done:  E(RHF) =  -1102.59816088     A.U. after    2 cycles

 The electronic state is 1-A.
 Alpha  occ. eigenvalues --  -93.97690 -93.97324 -20.58248 -20.52887 -11.38849
 Alpha  occ. eigenvalues --  -11.27429 -11.26596 -11.24776  -8.25699  -8.25339
 Alpha  occ. eigenvalues --   -6.23506  -6.23292  -6.23145  -6.23097  -6.22936
 Alpha  occ. eigenvalues --   -6.22707  -1.53601  -1.44193  -1.12438  -1.03155
 Alpha  occ. eigenvalues --   -1.02416  -0.92288  -0.82197  -0.81077  -0.70282
 Alpha  occ. eigenvalues --   -0.67718  -0.64333  -0.62346  -0.61158  -0.60646
 Alpha  occ. eigenvalues --   -0.59052  -0.57531  -0.56547  -0.55305  -0.54461
 Alpha  occ. eigenvalues --   -0.50488  -0.46518  -0.45571  -0.43838  -0.37566
 Alpha  occ. eigenvalues --   -0.36423
 Alpha virt. eigenvalues --    0.03421   0.03931   0.04389   0.04685   0.05699
 Alpha virt. eigenvalues --    0.05872   0.06221   0.07209   0.08023   0.08367
 Alpha virt. eigenvalues --    0.09927   0.10835   0.11733   0.12076   0.13722

 Mulliken charges:
               1
     1  C    1.887025
     2  O   -1.217771
     3  O   -1.355589
     4  H    0.723366
     5  C   -0.583848
     6  H    0.176668
     7  H    0.221807
     8  H    0.230092
     9  H    0.169298
    10  H    0.220973
    11  H    0.190969
    12  H    0.200056
    13  H    0.139460
    14  H    0.232486
    15  C   -0.743275
    16  S    0.186610
    17  S   -0.054511
    18  C   -0.623814
 Sum of Mulliken charges =  -0.00000

 Dipole moment (field-independent basis, Debye):
    X=             -1.2884    Y=              0.3786    Z=              0.7341  Tot=              1.5305

 Test job not archived.
 1\1\GINC-SE054\SP\RHF\Aug-CC-pVDZ\C4H10O2S2\OHZDE\09-Apr-2025\0\\#t hf
  aug-cc-pvdz iop(5/13=1,5/36=2,99/5=2) pseudo=read geom=check guess=(r
 ead,tcheck) scf=(maxcycle=1)\\title\\0,1\C,0,2.51189353,-1.3688008,0.0
 1480743\O,0,1.76216303,-1.97148126,0.7444221\O,0,2.20838592,-0.1819016
 3,-0.53372859\H,0,1.31541707,0.08523139,-0.22768185\C,0,3.88111819,-1.
 83853704,-0.39087365\H,0,4.08390343,-2.80677129,0.05292751\H,0,3.94369
 33,-1.90220497,-1.47628393\H,0,4.62800978,-1.11523999,-0.06604891\H,0,
 -3.86402426,2.69605347,-0.61494427\H,0,-3.10226217,2.59267462,0.986878

 Normal termination of Gaussian 16 at Wed Apr  9 19:26:42 2025.
