 Gaussian 16, Revision C.01,

 ----------------------------------------------------------------------
 #t hf aug-cc-pvdz symm=none int=(grid=ultrafine) guess=(read,tcheck) s
 table=(opt,rrhf)
 ----------------------------------------------------------------------
 -----
 title
 -----
 Symbolic Z-matrix:
 Charge =  0 Multiplicity = 1

 SCF Done:  E(RHF) =  -952.351169978     A.U. after   14 cycles

 1\1\GINC-SE168\Stability\RHF\Aug-CC-pVDZ\C4H10S2\OHZDE\09-Apr-2025\0\\
 #t hf aug-cc-pvdz symm=none int=(grid=ultrafine) guess=(read,tcheck) s
 table=(opt,rrhf)\\title\\0,1\H,0,1.94048627,-0.28311522,0.30003006\H,0
 ,2.70886397,-1.74966836,-0.33633756\H,0,2.5169729,-1.54996222,1.410513
 58\H,0,-0.19256655,-1.5118813,1.21090974\C,0,2.06439688,-1.35234501,0.
 4434425\S,0,0.46794236,-2.21627191,0.2804649\H,0,-2.34597254,0.2805714
 5,0.26363496\H,0,-2.40393703,0.73704709,-1.45253423\H,0,-1.76206584,-0
 .82963605,-0.9990611\H,0,1.2996488,1.21272496,-1.79165204\H,0,0.523104

 Normal termination of Gaussian 16 at Wed Apr  9 19:23:12 2025.
 Gaussian 16:  ES64L-G16RevC.01  3-Jul-2019

 ----------------------------------------------------------------------
 #t hf aug-cc-pvdz iop(5/13=1,5/36=2,99/5=2) pseudo=read geom=check gue
 ss=(read,tcheck) scf=(maxcycle=1)
 ----------------------------------------------------------------------
 -----
 title
 -----
 Structure from the checkpoint file:  "HB300SPXx10_1022_4.06_0.85_methanethiol_thioacetone_dimer_mol1.chk"
 Charge =  0 Multiplicity = 1

                         Standard orientation:
 ---------------------------------------------------------------------
 Center     Atomic      Atomic             Coordinates (Angstroms)
 Number     Number       Type             X           Y           Z
 ---------------------------------------------------------------------
      1          1           0        0.969212   -1.360769    0.650477
      2          1           0        2.439980   -0.815971    1.478839
      3          1           0        2.571635   -1.695728   -0.049850
      4          1           0        1.244590    0.251954   -1.402028
      5          6           0        1.976460   -0.980268    0.509604
      6         16           0        1.945356    0.638985   -0.326249
      7          1           0       -1.499741    1.320310   -1.675225
      8          1           0       -2.303090    2.024172   -0.255304
      9          1           0       -0.560386    2.138357   -0.403879
     10          1           0       -1.079444   -0.585757    2.142357
     11          1           0       -0.157104    0.899010    1.819475
     12          6           0       -1.416302    1.490804   -0.607359
     13          6           0       -1.261964    0.209342    0.151571
     14         16           0       -1.254691   -1.245877   -0.576853
     15          6           0       -1.095129    0.370414    1.630551
     16          1           0       -1.894675    0.992947    2.038574
 ---------------------------------------------------------------------

 SCF Done:  E(RHF) =  -952.644093401     A.U. after    2 cycles

 The electronic state is 1-A.
 Alpha  occ. eigenvalues --  -93.94684 -93.92130 -11.33271 -11.26177 -11.25026
 Alpha  occ. eigenvalues --  -11.24847  -8.22800  -8.20460  -6.20662  -6.20517
 Alpha  occ. eigenvalues --   -6.20295  -6.18277  -6.18086  -6.17865  -1.13560
 Alpha  occ. eigenvalues --   -1.06031  -0.97573  -0.97130  -0.88345  -0.73237
 Alpha  occ. eigenvalues --   -0.63307  -0.62128  -0.62082  -0.61408  -0.59163
 Alpha  occ. eigenvalues --   -0.56559  -0.53940  -0.53334  -0.50615  -0.46834
 Alpha  occ. eigenvalues --   -0.39208  -0.36632  -0.34242
 Alpha virt. eigenvalues --    0.03232   0.03634   0.04056   0.04562   0.05758
 Alpha virt. eigenvalues --    0.05951   0.06490   0.07094   0.07847   0.08883
 Alpha virt. eigenvalues --    0.09527   0.10307   0.11657   0.12288   0.13356

 Mulliken charges:
               1
     1  H    0.182108
     2  H    0.178561
     3  H    0.087387
     4  H    0.424996
     5  C   -0.597924
     6  S   -0.231757
     7  H    0.170299
     8  H    0.221082
     9  H    0.275937
    10  H    0.164332
    11  H    0.335098
    12  C   -0.420486
    13  C   -0.541921
    14  S   -0.018692
    15  C   -0.381017
    16  H    0.151997
 Sum of Mulliken charges =   0.00000

 Dipole moment (field-independent basis, Debye):
    X=             -0.4148    Y=              1.4308    Z=              1.5958  Tot=              2.1831

 Test job not archived.
 1\1\GINC-SE168\SP\RHF\Aug-CC-pVDZ\C4H10S2\OHZDE\09-Apr-2025\0\\#t hf a
 ug-cc-pvdz iop(5/13=1,5/36=2,99/5=2) pseudo=read geom=check guess=(rea
 d,tcheck) scf=(maxcycle=1)\\title\\0,1\H,0,1.94048627,-0.28311522,0.30
 003006\H,0,2.70886397,-1.74966836,-0.33633756\H,0,2.5169729,-1.5499622
 2,1.41051358\H,0,-0.19256655,-1.5118813,1.21090974\C,0,2.06439688,-1.3
 5234501,0.4434425\S,0,0.46794236,-2.21627191,0.2804649\H,0,-2.34597254
 ,0.28057145,0.26363496\H,0,-2.40393703,0.73704709,-1.45253423\H,0,-1.7
 6206584,-0.82963605,-0.9990611\H,0,1.2996488,1.21272496,-1.79165204\H,

 Normal termination of Gaussian 16 at Wed Apr  9 19:23:18 2025.
