 Gaussian 16, Revision C.01,

 ----------------------------------------------------------------------
 #t hf aug-cc-pvdz symm=none int=(grid=ultrafine) guess=(read,tcheck) s
 table=(opt,rrhf)
 ----------------------------------------------------------------------
 -----
 title
 -----
 Symbolic Z-matrix:
 Charge =  0 Multiplicity = 1

 SCF Done:  E(RHF) =  -977.994185261     A.U. after   12 cycles
 Normal termination of Gaussian 16 at Wed Apr  9 19:33:27 2025.
 Gaussian 16:  ES64L-G16RevC.01  3-Jul-2019

 ----------------------------------------------------------------------
 #t hf aug-cc-pvdz iop(5/13=1,5/36=2,99/5=2) pseudo=read geom=check gue
 ss=(read,tcheck) scf=(maxcycle=1)
 ----------------------------------------------------------------------
 -----
 title
 -----
 Structure from the checkpoint file:  "HB300SPXx10_1449_5.07_1.50_methanethiol_phosphineF2_dimer_mol1.chk"
 Charge =  0 Multiplicity = 1

                         Standard orientation:
 ---------------------------------------------------------------------
 Center     Atomic      Atomic             Coordinates (Angstroms)
 Number     Number       Type             X           Y           Z
 ---------------------------------------------------------------------
      1          1           0        2.332689    1.708956   -0.157601
      2          1           0        3.019966    0.886273   -1.564796
      3          1           0        4.048299    1.212898   -0.161259
      4          1           0        2.563752   -0.386324    1.446175
      5          6           0        3.043399    0.954987   -0.480711
      6         16           0        2.565508   -0.689888    0.139479
      7         15           0       -1.754532   -0.286288   -0.243299
      8          9           0       -1.448737    0.905414    0.786605
      9          9           0       -3.343988   -0.071865   -0.341660
     10          1           0       -1.820728   -1.321152    0.735068
 ---------------------------------------------------------------------

 SCF Done:  E(RHF) =  -978.323881040     A.U. after    2 cycles

 The electronic state is 1-A.
 Alpha  occ. eigenvalues --  -93.95479 -84.41321 -26.48251 -26.48034 -11.27329
 Alpha  occ. eigenvalues --   -8.23573  -6.86972  -6.21433  -6.21285  -6.21054
 Alpha  occ. eigenvalues --   -4.39720  -4.39072  -4.38048  -1.62249  -1.57676
 Alpha  occ. eigenvalues --   -1.06695  -0.89095  -0.88353  -0.70977  -0.70869
 Alpha  occ. eigenvalues --   -0.69186  -0.64835  -0.62244  -0.61892  -0.60545
 Alpha  occ. eigenvalues --   -0.57981  -0.54215  -0.47332  -0.38794  -0.36965
 Alpha virt. eigenvalues --    0.03551   0.04303   0.04792   0.05724   0.06431
 Alpha virt. eigenvalues --    0.08162   0.08775   0.10035   0.11672   0.11794
 Alpha virt. eigenvalues --    0.14509   0.14896   0.15625   0.16001   0.17019

 Mulliken charges:
               1
     1  H    0.133028
     2  H    0.175124
     3  H    0.139730
     4  H    0.343983
     5  C   -0.681936
     6  S   -0.111338
     7  P    1.464531
     8  F   -0.757223
     9  F   -0.782105
    10  H    0.076207
 Sum of Mulliken charges =  -0.00000

 Dipole moment (field-independent basis, Debye):
    X=              1.5219    Y=              0.3306    Z=              0.0481  Tot=              1.5581

 Test job not archived.
 1\1\GINC-SE145\SP\RHF\Aug-CC-pVDZ\C1H5F2P1S1\OHZDE\09-Apr-2025\0\\#t h
 f aug-cc-pvdz iop(5/13=1,5/36=2,99/5=2) pseudo=read geom=check guess=(
 read,tcheck) scf=(maxcycle=1)\\title\\0,1\H,0,-1.72434823,-0.02735536,
 -1.47402619\H,0,-1.29643549,-1.41515971,-2.4840979\H,0,-1.57230153,0.1
 6002765,-3.24353895\H,0,0.52779021,1.28305094,-1.94983564\C,0,-1.18500
 823,-0.34129171,-2.36202164\S,0,0.60124692,-0.03772908,-2.17289215\P,0
 ,0.97017419,-1.01166545,2.05646908\F,0,-0.06743035,0.20954727,2.136359
 8\F,0,1.04929523,-1.31920147,3.6316463\H,0,2.14821992,-0.20959915,2.01

 Normal termination of Gaussian 16 at Wed Apr  9 19:33:29 2025.
