 Gaussian 16, Revision C.01,

 ----------------------------------------------------------------------
 #t hf aug-cc-pvdz symm=none int=(grid=ultrafine) guess=(read,tcheck) s
 table=(opt,rrhf)
 ----------------------------------------------------------------------
 -----
 title
 -----
 Symbolic Z-matrix:
 Charge =  0 Multiplicity = 1

 SCF Done:  E(RHF) =  -914.495160078     A.U. after   12 cycles

 1\1\GINC-SE222\Stability\RHF\Aug-CC-pVDZ\C3H10S2\OHZDE\09-Apr-2025\0\\
 #t hf aug-cc-pvdz symm=none int=(grid=ultrafine) guess=(read,tcheck) s
 table=(opt,rrhf)\\title\\0,1\H,0,2.306559,-2.0578968,-0.64952301\H,0,3
 .32031438,-1.47471252,0.67641305\H,0,2.52307119,-0.31083024,-0.3888258
 5\H,0,0.07002633,-1.01993654,0.36023035\C,0,2.42249764,-1.27751778,0.0
 9684023\S,0,1.02865784,-1.2837739,1.27093846\H,0,0.61402831,1.59930914
 ,-0.05019179\H,0,-0.29878043,2.87795022,-0.89351268\H,0,0.71608463,1.7
 5831833,-1.8158505\H,0,-3.09167672,0.35750957,0.34204842\H,0,-2.567742

 Normal termination of Gaussian 16 at Wed Apr  9 04:10:27 2025.
 Gaussian 16:  ES64L-G16RevC.01  3-Jul-2019

 ----------------------------------------------------------------------
 #t hf aug-cc-pvdz iop(5/13=1,5/36=2,99/5=2) pseudo=read geom=check gue
 ss=(read,tcheck) scf=(maxcycle=1)
 ----------------------------------------------------------------------
 -----
 title
 -----
 Structure from the checkpoint file:  "HB300SPXx10_1186_4.23_1.05_methanethiol_dimethylsulfide_dimer_mol1.chk"
 Charge =  0 Multiplicity = 1

                         Standard orientation:
 ---------------------------------------------------------------------
 Center     Atomic      Atomic             Coordinates (Angstroms)
 Number     Number       Type             X           Y           Z
 ---------------------------------------------------------------------
      1          1           0        2.762036    1.030221   -1.283903
      2          1           0        3.621036    0.949465    0.259310
      3          1           0        1.996289    1.643534    0.200872
      4          1           0        0.839689   -0.644916   -0.510898
      5          6           0        2.645860    0.878219   -0.214843
      6         16           0        2.009894   -0.791855    0.142557
      7          1           0       -0.414744    0.965442    1.266173
      8          1           0       -2.117277    1.478172    1.399668
      9          1           0       -1.024448    2.314979    0.286244
     10          1           0       -2.311324   -2.042537   -0.402126
     11          1           0       -2.891677   -1.107535    0.985845
     12          1           0       -1.175154   -1.568797    0.874888
     13          6           0       -1.275283    1.350995    0.722080
     14         16           0       -1.709085    0.240538   -0.641011
     15          6           0       -2.053472   -1.262039    0.309294
 ---------------------------------------------------------------------

 SCF Done:  E(RHF) =  -914.754495757     A.U. after    2 cycles

 The electronic state is 1-A.
 Alpha  occ. eigenvalues --  -93.94458 -93.94125 -11.26542 -11.26430 -11.26400
 Alpha  occ. eigenvalues --   -8.22557  -8.22221  -6.20389  -6.20232  -6.20081
 Alpha  occ. eigenvalues --   -6.20011  -6.19941  -6.19714  -1.09019  -1.05605
 Alpha  occ. eigenvalues --   -0.96248  -0.88083  -0.83076  -0.62559  -0.61500
 Alpha  occ. eigenvalues --   -0.60672  -0.59608  -0.59020  -0.57554  -0.52974
 Alpha  occ. eigenvalues --   -0.50851  -0.46470  -0.44802  -0.35927  -0.34898
 Alpha virt. eigenvalues --    0.03363   0.03770   0.04377   0.04658   0.05988
 Alpha virt. eigenvalues --    0.06487   0.06806   0.07719   0.08913   0.09996
 Alpha virt. eigenvalues --    0.10353   0.12958   0.13192   0.14138   0.14582

 Mulliken charges:
               1
     1  H    0.138991
     2  H    0.141719
     3  H    0.134115
     4  H    0.466476
     5  C   -0.680193
     6  S   -0.177192
     7  H    0.170597
     8  H    0.133123
     9  H    0.158504
    10  H    0.160782
    11  H    0.168189
    12  H    0.108563
    13  C   -0.588236
    14  S    0.273243
    15  C   -0.608682
 Sum of Mulliken charges =   0.00000

 Dipole moment (field-independent basis, Debye):
    X=             -0.4607    Y=              1.2467    Z=              1.0219  Tot=              1.6765

 Test job not archived.
 1\1\GINC-SE222\SP\RHF\Aug-CC-pVDZ\C3H10S2\OHZDE\09-Apr-2025\0\\#t hf a
 ug-cc-pvdz iop(5/13=1,5/36=2,99/5=2) pseudo=read geom=check guess=(rea
 d,tcheck) scf=(maxcycle=1)\\title\\0,1\H,0,2.306559,-2.0578968,-0.6495
 2301\H,0,3.32031438,-1.47471252,0.67641305\H,0,2.52307119,-0.31083024,
 -0.38882585\H,0,0.07002633,-1.01993654,0.36023035\C,0,2.42249764,-1.27
 751778,0.09684023\S,0,1.02865784,-1.2837739,1.27093846\H,0,0.61402831,
 1.59930914,-0.05019179\H,0,-0.29878043,2.87795022,-0.89351268\H,0,0.71
 608463,1.75831833,-1.8158505\H,0,-3.09167672,0.35750957,0.34204842\H,0

 Normal termination of Gaussian 16 at Wed Apr  9 04:10:31 2025.
