 Gaussian 16, Revision C.01,

 ----------------------------------------------------------------------
 #t hf aug-cc-pvdz symm=none int=(grid=ultrafine) guess=(read,tcheck) s
 table=(opt,rrhf)
 ----------------------------------------------------------------------
 -----
 title
 -----
 Symbolic Z-matrix:
 Charge =  0 Multiplicity = 1

 SCF Done:  E(RHF) =  -513.762216615     A.U. after   12 cycles
 Normal termination of Gaussian 16 at Wed Apr  9 19:27:42 2025.
 Gaussian 16:  ES64L-G16RevC.01  3-Jul-2019

 ----------------------------------------------------------------------
 #t hf aug-cc-pvdz iop(5/13=1,5/36=2,99/5=2) pseudo=read geom=check gue
 ss=(read,tcheck) scf=(maxcycle=1)
 ----------------------------------------------------------------------
 -----
 title
 -----
 Structure from the checkpoint file:  "HB300SPXx10_1161_4.21_0.80_water_methanethiol_dimer_mol1.chk"
 Charge =  0 Multiplicity = 1

                         Standard orientation:
 ---------------------------------------------------------------------
 Center     Atomic      Atomic             Coordinates (Angstroms)
 Number     Number       Type             X           Y           Z
 ---------------------------------------------------------------------
      1          8           0       -1.988833    0.131285    0.054934
      2          1           0       -1.185460   -0.389362   -0.088470
      3          1           0       -2.703730   -0.399100   -0.303052
      4          1           0       -0.083010    1.543970    0.493813
      5          1           0        0.823298    1.498042   -1.022278
      6          1           0        1.704805    1.478539    0.511763
      7          1           0        0.722908   -0.908305    1.238867
      8          6           0        0.802447    1.148927    0.006380
      9         16           0        0.738573   -0.672977   -0.081775
 ---------------------------------------------------------------------

 SCF Done:  E(RHF) =  -513.949875661     A.U. after    2 cycles

 The electronic state is 1-A.
 Alpha  occ. eigenvalues --  -93.96068 -20.52475 -11.27147  -8.24305  -6.22138
 Alpha  occ. eigenvalues --   -6.21994  -6.21815  -1.41471  -1.07527  -0.89654
 Alpha  occ. eigenvalues --   -0.70338  -0.62478  -0.59676  -0.55840  -0.54507
 Alpha  occ. eigenvalues --   -0.48100  -0.47103  -0.37899
 Alpha virt. eigenvalues --    0.03725   0.04363   0.04665   0.05921   0.07150
 Alpha virt. eigenvalues --    0.09788   0.10995   0.11735   0.14330   0.14661
 Alpha virt. eigenvalues --    0.15939   0.16856   0.18081   0.21110   0.21792

 Mulliken charges:
               1
     1  O   -0.949629
     2  H    0.882200
     3  H    0.332259
     4  H    0.139028
     5  H    0.184038
     6  H    0.120158
     7  H    0.370307
     8  C   -0.579077
     9  S   -0.499283
 Sum of Mulliken charges =  -0.00000

 Dipole moment (field-independent basis, Debye):
    X=              0.7796    Y=             -0.1487    Z=              0.1380  Tot=              0.8055

 Test job not archived.
 1\1\GINC-SE212\SP\RHF\Aug-CC-pVDZ\C1H6O1S1\OHZDE\09-Apr-2025\0\\#t hf
 aug-cc-pvdz iop(5/13=1,5/36=2,99/5=2) pseudo=read geom=check guess=(re
 ad,tcheck) scf=(maxcycle=1)\\title\\0,1\O,0,-0.58582535,-1.65985485,-1
 .57348405\H,0,-0.07487288,-1.34797585,-0.81275631\H,0,-0.15829821,-2.4
 72369,-1.85201796\H,0,-1.27793922,0.59586339,-1.07032767\H,0,0.2217879
 4,1.52325106,-1.18349823\H,0,-0.94045503,1.91306705,0.09241267\H,0,-0.
 6407693,-0.45178123,1.32022005\C,0,-0.51209127,1.10899507,-0.4977387\S
 ,0,0.39819496,-0.06125881,0.56671815\\Version=ES64L-G16RevC.01\State=1

 Normal termination of Gaussian 16 at Wed Apr  9 19:27:44 2025.
