 Gaussian 16, Revision C.01,

 ----------------------------------------------------------------------
 #t hf aug-cc-pvdz symm=none int=(grid=ultrafine) guess=(read,tcheck) s
 table=(opt,rrhf)
 ----------------------------------------------------------------------
 -----
 title
 -----
 Symbolic Z-matrix:
 Charge =  0 Multiplicity = 1

 SCF Done:  E(RHF) =  -874.302062466     A.U. after   13 cycles
 Normal termination of Gaussian 16 at Wed Apr  9 19:23:42 2025.
 Gaussian 16:  ES64L-G16RevC.01  3-Jul-2019

 ----------------------------------------------------------------------
 #t hf aug-cc-pvdz iop(5/13=1,5/36=2,99/5=2) pseudo=read geom=check gue
 ss=(read,tcheck) scf=(maxcycle=1)
 ----------------------------------------------------------------------
 -----
 title
 -----
 Structure from the checkpoint file:  "HB300SPXx10_1061_4.10_0.80_methylamine_dimethyldisulfide_dimer_mol3.chk"
 Charge =  0 Multiplicity = 1

                         Standard orientation:
 ---------------------------------------------------------------------
 Center     Atomic      Atomic             Coordinates (Angstroms)
 Number     Number       Type             X           Y           Z
 ---------------------------------------------------------------------
      1          1           0       -2.800005    0.869750    0.148035
      2          1           0       -2.025222    0.518080   -1.410301
      3          1           0       -1.332320    1.754246   -0.327549
      4          1           0        1.877401    0.611261    1.436656
      5          1           0        1.386644    1.782482    0.174162
      6          1           0        2.844144    0.789393   -0.042996
      7          6           0       -1.847577    0.799742   -0.375945
      8         16           0       -0.900819   -0.497306    0.483536
      9         16           0        0.908092   -0.502968   -0.480175
     10          6           0        1.836408    0.813453    0.370647
 ---------------------------------------------------------------------

 SCF Done:  E(RHF) =  -874.515081358     A.U. after    2 cycles

 The electronic state is 1-A.
 Alpha  occ. eigenvalues --  -93.96692 -93.96685 -11.26955 -11.26953  -8.24710
 Alpha  occ. eigenvalues --   -8.24684  -6.22530  -6.22483  -6.22298  -6.22287
 Alpha  occ. eigenvalues --   -6.22068  -6.22065  -1.11720  -1.02608  -0.92031
 Alpha  occ. eigenvalues --   -0.80865  -0.62092  -0.60774  -0.60493  -0.58877
 Alpha  occ. eigenvalues --   -0.54126  -0.49921  -0.44810  -0.36621  -0.35533
 Alpha virt. eigenvalues --    0.03510   0.03996   0.05081   0.05363   0.06462
 Alpha virt. eigenvalues --    0.07844   0.08683   0.09674   0.12411   0.13693
 Alpha virt. eigenvalues --    0.14233   0.14497   0.15597   0.15747   0.16342

 Mulliken charges:
               1
     1  H    0.181150
     2  H    0.219351
     3  H    0.174767
     4  H    0.223104
     5  H    0.188023
     6  H    0.173935
     7  C   -0.686048
     8  S    0.104167
     9  S    0.103144
    10  C   -0.681593
 Sum of Mulliken charges =  -0.00000

 Dipole moment (field-independent basis, Debye):
    X=             -0.0081    Y=              2.3462    Z=             -0.0089  Tot=              2.3462

 Test job not archived.
 1\1\GINC-SE104\SP\RHF\Aug-CC-pVDZ\C2H6S2\OHZDE\09-Apr-2025\0\\#t hf au
 g-cc-pvdz iop(5/13=1,5/36=2,99/5=2) pseudo=read geom=check guess=(read
 ,tcheck) scf=(maxcycle=1)\\title\\0,1\H,0,-1.96162847,-2.59154916,0.17
 042091\H,0,-2.4908102,-0.89902716,0.25821713\H,0,-1.15802705,-1.472678
 53,1.2951285\H,0,2.29605323,-0.25115967,0.15566981\H,0,1.16059015,0.01
 776267,1.51393899\H,0,1.99822138,1.39219704,0.76095019\C,0,-1.6339163,
 -1.56405105,0.32348484\S,0,-0.4522968,-1.21348985,-1.01751225\S,0,0.20
 081792,0.68613645,-0.61034048\C,0,1.55156924,0.41469975,0.58147549\\Ve

 Normal termination of Gaussian 16 at Wed Apr  9 19:23:45 2025.
