 Gaussian 16, Revision C.01,

 ----------------------------------------------------------------------
 #t hf aug-cc-pvdz symm=none int=(grid=ultrafine) guess=(read,tcheck) s
 table=(opt,rrhf)
 ----------------------------------------------------------------------
 -----
 title
 -----
 Symbolic Z-matrix:
 Charge =  0 Multiplicity = 1

 SCF Done:  E(RHF) =  -1013.77174421     A.U. after   12 cycles
 Normal termination of Gaussian 16 at Wed Apr  9 19:31:11 2025.
 Gaussian 16:  ES64L-G16RevC.01  3-Jul-2019

 ----------------------------------------------------------------------
 #t hf aug-cc-pvdz iop(5/13=1,5/36=2,99/5=2) pseudo=read geom=check gue
 ss=(read,tcheck) scf=(maxcycle=1)
 ----------------------------------------------------------------------
 -----
 title
 -----
 Structure from the checkpoint file:  "HB300SPXx10_1363_4.41_0.90_hydrogenchloride_tetrahydrothiophene_dimer_mol1.chk"
 Charge =  0 Multiplicity = 1

                         Standard orientation:
 ---------------------------------------------------------------------
 Center     Atomic      Atomic             Coordinates (Angstroms)
 Number     Number       Type             X           Y           Z
 ---------------------------------------------------------------------
      1          1           0       -1.411240   -0.446797    0.082040
      2         17           0       -2.445567    0.341642   -0.196958
      3          1           0        1.662074   -0.016202    1.972355
      4          1           0       -0.020774    0.530225    2.016425
      5          1           0        1.778310    2.097503    0.784465
      6          1           0        0.099156   -0.264560   -1.817096
      7          1           0        0.224294    1.814348    0.002667
      8          1           0        1.490835   -1.353022   -1.710296
      9          1           0        1.945521    1.295019   -1.688988
     10          1           0        2.811688    0.283817   -0.536037
     11         16           0        0.296568   -1.227695    0.389254
     12          6           0        0.801352    0.250228    1.363334
     13          6           0        1.141401    1.332488    0.340885
     14          6           0        1.821275    0.631030   -0.833933
     15          6           0        0.944253   -0.564600   -1.201170
 ---------------------------------------------------------------------

 SCF Done:  E(RHF) =  -1014.08516685     A.U. after    2 cycles

 The electronic state is 1-A.
 Alpha  occ. eigenvalues -- -105.53295 -93.95858 -11.27894 -11.27869 -11.25347
 Alpha  occ. eigenvalues --  -11.25021 -10.58188  -8.24088  -7.75138  -7.74824
 Alpha  occ. eigenvalues --   -7.74820  -6.21858  -6.21746  -6.21579  -1.15860
 Alpha  occ. eigenvalues --   -1.03436  -1.00672  -1.00189  -0.81775  -0.81453
 Alpha  occ. eigenvalues --   -0.68531  -0.66784  -0.62420  -0.61056  -0.55908
 Alpha  occ. eigenvalues --   -0.53050  -0.51668  -0.50636  -0.50225  -0.45632
 Alpha  occ. eigenvalues --   -0.44676  -0.44351  -0.36423
 Alpha virt. eigenvalues --    0.03048   0.03500   0.03829   0.04762   0.06052
 Alpha virt. eigenvalues --    0.06660   0.07206   0.07639   0.07648   0.10849
 Alpha virt. eigenvalues --    0.12154   0.13669   0.13988   0.14064   0.14438

 Mulliken charges:
               1
     1  H    0.582533
     2  Cl  -0.325555
     3  H    0.135568
     4  H    0.115184
     5  H    0.150328
     6  H    0.078568
     7  H    0.116107
     8  H    0.172411
     9  H    0.141237
    10  H    0.112880
    11  S    0.033752
    12  C   -0.381823
    13  C   -0.296074
    14  C   -0.234390
    15  C   -0.400724
 Sum of Mulliken charges =  -0.00000

 Dipole moment (field-independent basis, Debye):
    X=              3.8402    Y=              0.6876    Z=             -0.0681  Tot=              3.9019

 Test job not archived.
 1\1\GINC-SE108\SP\RHF\Aug-CC-pVDZ\C4H9Cl1S1\OHZDE\09-Apr-2025\0\\#t hf
  aug-cc-pvdz iop(5/13=1,5/36=2,99/5=2) pseudo=read geom=check guess=(r
 ead,tcheck) scf=(maxcycle=1)\\title\\0,1\H,0,-0.21838216,0.19107529,-1
 .4737198\Cl,0,-0.27626126,1.34164549,-2.13866114\H,0,-1.6262889,-0.995
 38866,1.65902075\H,0,-2.05422672,0.09096727,0.32890697\H,0,-0.88252493
 ,1.15810295,2.49665254\H,0,1.82744796,0.28121435,-0.15930892\H,0,-0.32
 564607,1.65612587,0.90034183\H,0,2.17029644,-1.22527195,0.70433544\H,0
 ,1.6946727,0.98793479,2.15168153\H,0,0.92531386,-0.51871406,2.64175014

 Normal termination of Gaussian 16 at Wed Apr  9 19:31:17 2025.
