 Gaussian 16, Revision C.01,

 ----------------------------------------------------------------------
 #t hf aug-cc-pvdz symm=none int=(grid=ultrafine) guess=(read,tcheck) s
 table=(opt,rrhf)
 ----------------------------------------------------------------------
 -----
 title
 -----
 Symbolic Z-matrix:
 Charge =  0 Multiplicity = 1

 SCF Done:  E(RHF) =  -855.905347922     A.U. after   14 cycles
 Normal termination of Gaussian 16 at Wed Apr  9 19:22:45 2025.
 Gaussian 16:  ES64L-G16RevC.01  3-Jul-2019

 ----------------------------------------------------------------------
 #t hf aug-cc-pvdz iop(5/13=1,5/36=2,99/5=2) pseudo=read geom=check gue
 ss=(read,tcheck) scf=(maxcycle=1)
 ----------------------------------------------------------------------
 -----
 title
 -----
 Structure from the checkpoint file:  "HB300SPXx10_1033_4.07_0.90_phosphaalkyne_methanethiol_dimer_mol1.chk"
 Charge =  0 Multiplicity = 1

                         Standard orientation:
 ---------------------------------------------------------------------
 Center     Atomic      Atomic             Coordinates (Angstroms)
 Number     Number       Type             X           Y           Z
 ---------------------------------------------------------------------
      1          1           0       -1.164023    2.142580    1.281071
      2          1           0       -1.432858    2.510944   -0.424919
      3          1           0        0.111723    1.825515    0.093350
      4         15           0       -2.012475   -0.968189   -0.169880
      5          6           0       -1.482382    0.460742    0.053663
      6          6           0       -0.967484    1.802441    0.262679
      7          1           0        0.830945   -0.200532    1.532993
      8          1           0        2.579757   -0.470358    1.628259
      9          1           0        1.530447   -1.735503    0.973415
     10          1           0        0.770507   -0.233027   -1.114993
     11          6           0        1.683344   -0.662744    1.044699
     12         16           0        1.972484    0.067537   -0.599202
 ---------------------------------------------------------------------

 SCF Done:  E(RHF) =  -856.132719365     A.U. after    2 cycles

 The electronic state is 1-A.
 Alpha  occ. eigenvalues --  -93.94431 -84.26420 -11.29221 -11.26582 -11.26196
 Alpha  occ. eigenvalues --   -8.22549  -6.74075  -6.20408  -6.20265  -6.20039
 Alpha  occ. eigenvalues --   -4.27024  -4.25451  -4.25304  -1.06632  -1.05204
 Alpha  occ. eigenvalues --   -0.92018  -0.88382  -0.67067  -0.62525  -0.60790
 Alpha  occ. eigenvalues --   -0.60498  -0.58606  -0.53383  -0.46753  -0.46546
 Alpha  occ. eigenvalues --   -0.36604  -0.35731  -0.35363
 Alpha virt. eigenvalues --    0.03400   0.03863   0.04776   0.05106   0.06282
 Alpha virt. eigenvalues --    0.06753   0.07170   0.07720   0.07861   0.09008
 Alpha virt. eigenvalues --    0.11288   0.12630   0.12991   0.14384   0.14714

 Mulliken charges:
               1
     1  H    0.255006
     2  H    0.180667
     3  H    0.152303
     4  P    0.792508
     5  C   -0.845568
     6  C   -0.540209
     7  H    0.174295
     8  H    0.151494
     9  H    0.146609
    10  H    0.410291
    11  C   -0.663039
    12  S   -0.214357
 Sum of Mulliken charges =   0.00000

 Dipole moment (field-independent basis, Debye):
    X=             -1.0138    Y=             -0.4422    Z=              1.1594  Tot=              1.6024

 Test job not archived.
 1\1\GINC-SE035\SP\RHF\Aug-CC-pVDZ\C3H7P1S1\OHZDE\09-Apr-2025\0\\#t hf
 aug-cc-pvdz iop(5/13=1,5/36=2,99/5=2) pseudo=read geom=check guess=(re
 ad,tcheck) scf=(maxcycle=1)\\title\\0,1\H,0,0.38933231,2.34404549,-1.6
 8180664\H,0,-1.19987448,1.75919838,-2.18254684\H,0,0.10218747,0.605834
 91,-1.86864837\P,0,-1.17058474,1.34195856,1.32892267\C,0,-0.7484701,1.
 45533882,-0.14816129\C,0,-0.34350289,1.5476729,-1.53972175\H,0,1.77663
 702,0.20782689,0.06332646\H,0,2.82006313,-1.21157914,-0.12843927\H,0,1
 .74748022,-1.0932075,1.27370865\H,0,-0.47266277,-1.15994674,-0.2305856

 Normal termination of Gaussian 16 at Wed Apr  9 19:22:49 2025.
