 Gaussian 16, Revision C.01,

 ----------------------------------------------------------------------
 #t hf aug-cc-pvdz symm=none int=(grid=ultrafine) guess=(read,tcheck) s
 table=(opt,rrhf)
 ----------------------------------------------------------------------
 -----
 title
 -----
 Symbolic Z-matrix:
 Charge =  0 Multiplicity = 1

 SCF Done:  E(RHF) =  -800.725544856     A.U. after   14 cycles
 Normal termination of Gaussian 16 at Wed Apr  9 19:28:08 2025.
 Gaussian 16:  ES64L-G16RevC.01  3-Jul-2019

 ----------------------------------------------------------------------
 #t hf aug-cc-pvdz iop(5/13=1,5/36=2,99/5=2) pseudo=read geom=check gue
 ss=(read,tcheck) scf=(maxcycle=1)
 ----------------------------------------------------------------------
 -----
 title
 -----
 Structure from the checkpoint file:  "HB300SPXx10_1105_4.14_1.00_Nmethylacetamide_tetrahydrothiophene_dimer_mol1.chk"
 Charge =  0 Multiplicity = 1

                         Standard orientation:
 ---------------------------------------------------------------------
 Center     Atomic      Atomic             Coordinates (Angstroms)
 Number     Number       Type             X           Y           Z
 ---------------------------------------------------------------------
      1          6           0       -2.325180   -1.691762   -0.150682
      2          1           0       -2.234060   -2.181299    0.817623
      3          1           0       -1.473810   -1.956186   -0.774487
      4          1           0       -3.236676   -2.061393   -0.616504
      5          6           0       -2.468203   -0.198862    0.069094
      6          8           0       -3.384938    0.268163    0.725239
      7          7           0       -1.518570    0.568840   -0.523364
      8          1           0       -0.727431    0.115547   -0.958891
      9          6           0       -1.503606    2.009111   -0.382354
     10          1           0       -2.524279    2.363667   -0.272049
     11          1           0       -0.939447    2.331910    0.496732
     12          1           0       -1.059553    2.458201   -1.268337
     13          1           0        1.452584    1.653307   -0.838114
     14          1           0        3.096435    1.149343   -1.237425
     15          1           0        2.553687    1.867439    1.297537
     16          1           0        2.244243   -1.986783    0.903333
     17          1           0        3.543548    0.439956    1.010481
     18          1           0        0.489172   -1.829835    0.778064
     19          1           0        1.753248   -0.272312    2.549757
     20          1           0        0.531695    0.459901    1.514847
     21         16           0        1.609150   -0.755174   -1.080552
     22          6           0        2.227487    0.919781   -0.627196
     23          6           0        2.550218    0.866824    0.865572
     24          6           0        1.502745   -0.035386    1.515876
     25          6           0        1.432161   -1.302349    0.667673
 ---------------------------------------------------------------------

 SCF Done:  E(RHF) =  -801.215608507     A.U. after    2 cycles

 The electronic state is 1-A.
 Alpha  occ. eigenvalues --  -93.94775 -20.49260 -15.51329 -11.34502 -11.27622
 Alpha  occ. eigenvalues --  -11.27481 -11.26341 -11.25223 -11.25010 -11.23858
 Alpha  occ. eigenvalues --   -8.22897  -6.20697  -6.20580  -6.20364  -1.44277
 Alpha  occ. eigenvalues --   -1.23115  -1.15232  -1.01876  -1.00380  -0.99843
 Alpha  occ. eigenvalues --   -0.94061  -0.81636  -0.81212  -0.80781  -0.70209
 Alpha  occ. eigenvalues --   -0.67992  -0.66609  -0.66155  -0.64302  -0.62172
 Alpha  occ. eigenvalues --   -0.58981  -0.58211  -0.56848  -0.56252  -0.55382
 Alpha  occ. eigenvalues --   -0.52823  -0.51499  -0.50492  -0.50094  -0.49915
 Alpha  occ. eigenvalues --   -0.44640  -0.41258  -0.40447  -0.35906
 Alpha virt. eigenvalues --    0.02867   0.02902   0.03563   0.03910   0.04901
 Alpha virt. eigenvalues --    0.05398   0.05532   0.06244   0.06692   0.07480
 Alpha virt. eigenvalues --    0.08222   0.08553   0.09656   0.10082   0.11175

 Mulliken charges:
               1
     1  C   -0.306858
     2  H    0.257024
     3  H    0.102687
     4  H    0.113208
     5  C    0.443147
     6  O   -1.392371
     7  N    0.890502
     8  H    0.098521
     9  C   -0.385586
    10  H   -0.020193
    11  H    0.142408
    12  H    0.133927
    13  H    0.057121
    14  H    0.159576
    15  H    0.140023
    16  H    0.103961
    17  H    0.098667
    18  H    0.063972
    19  H    0.152329
    20  H    0.059596
    21  S    0.289734
    22  C   -0.461206
    23  C   -0.310398
    24  C   -0.189314
    25  C   -0.240476
 Sum of Mulliken charges =  -0.00000

 Dipole moment (field-independent basis, Debye):
    X=              4.2150    Y=              0.1293    Z=              0.0372  Tot=              4.2171

 Test job not archived.
 1\1\GINC-SE116\SP\RHF\Aug-CC-pVDZ\C7H15N1O1S1\OHZDE\09-Apr-2025\0\\#t
 hf aug-cc-pvdz iop(5/13=1,5/36=2,99/5=2) pseudo=read geom=check guess=
 (read,tcheck) scf=(maxcycle=1)\\title\\0,1\C,0,-2.35790997,-0.53076315
 ,1.51380969\H,0,-2.45888814,0.43106478,2.01406411\H,0,-1.4356415,-1.01
 232631,1.83224394\H,0,-3.20368729,-1.14467685,1.81747472\C,0,-2.435185
 38,-0.3119418,0.01592702\O,0,-3.41358688,0.19433185,-0.50891479\N,0,-1
 .3525984,-0.72916607,-0.68842032\H,0,-0.53292762,-1.03795931,-0.184588
 74\C,0,-1.26500492,-0.56327277,-2.12344447\H,0,-2.26409386,-0.61429593

 Normal termination of Gaussian 16 at Wed Apr  9 19:28:26 2025.
