 Gaussian 16, Revision C.01,

 ----------------------------------------------------------------------
 #t hf aug-cc-pvdz symm=none int=(grid=ultrafine) guess=(read,tcheck) s
 table=(opt,rrhf)
 ----------------------------------------------------------------------
 -----
 title
 -----
 Symbolic Z-matrix:
 Charge =  0 Multiplicity = 1

 SCF Done:  E(RHF) =  -914.484514442     A.U. after   12 cycles

 1\1\GINC-SE135\Stability\RHF\Aug-CC-pVDZ\C3H10S2\OHZDE\09-Apr-2025\0\\
 #t hf aug-cc-pvdz symm=none int=(grid=ultrafine) guess=(read,tcheck) s
 table=(opt,rrhf)\\title\\0,1\H,0,2.306559,-2.0578968,-0.64952301\H,0,3
 .32031438,-1.47471252,0.67641305\H,0,2.52307119,-0.31083024,-0.3888258
 5\H,0,0.07002633,-1.01993654,0.36023035\C,0,2.42249764,-1.27751778,0.0
 9684023\S,0,1.02865784,-1.2837739,1.27093846\H,0,0.87794009,1.27149409
 ,0.24584747\H,0,-0.03486865,2.55013518,-0.59747342\H,0,0.97999641,1.43
 050329,-1.51981124\H,0,-2.82776494,0.02969453,0.63808768\H,0,-2.303831

 Normal termination of Gaussian 16 at Wed Apr  9 04:10:26 2025.
 Gaussian 16:  ES64L-G16RevC.01  3-Jul-2019

 ----------------------------------------------------------------------
 #t hf aug-cc-pvdz iop(5/13=1,5/36=2,99/5=2) pseudo=read geom=check gue
 ss=(read,tcheck) scf=(maxcycle=1)
 ----------------------------------------------------------------------
 -----
 title
 -----
 Structure from the checkpoint file:  "HB300SPXx10_1182_4.23_0.85_methanethiol_dimethylsulfide_dimer_mol1.chk"
 Charge =  0 Multiplicity = 1

                         Standard orientation:
 ---------------------------------------------------------------------
 Center     Atomic      Atomic             Coordinates (Angstroms)
 Number     Number       Type             X           Y           Z
 ---------------------------------------------------------------------
      1          1           0        2.580316    0.912339   -1.283163
      2          1           0        3.419576    0.763758    0.265861
      3          1           0        1.858584    1.590381    0.195500
      4          1           0        0.520348   -0.595508   -0.520293
      5          6           0        2.444956    0.772818   -0.214658
      6         16           0        1.670009   -0.837827    0.141171
      7          1           0       -0.137754    0.908998    1.274095
      8          1           0       -1.792587    1.561790    1.395434
      9          1           0       -0.626745    2.302447    0.287972
     10          1           0       -2.267006   -1.934456   -0.401978
     11          1           0       -2.776610   -0.951462    0.980601
     12          1           0       -1.103703   -1.554079    0.881811
     13          6           0       -0.959698    1.363594    0.723670
     14         16           0       -1.475467    0.290124   -0.640500
     15          6           0       -1.949775   -1.176573    0.309893
 ---------------------------------------------------------------------

 SCF Done:  E(RHF) =  -914.745332855     A.U. after    2 cycles

 The electronic state is 1-A.
 Alpha  occ. eigenvalues --  -93.94907 -93.92924 -11.26663 -11.26498 -11.26145
 Alpha  occ. eigenvalues --   -8.23038  -8.21113  -6.20858  -6.20702  -6.20506
 Alpha  occ. eigenvalues --   -6.18972  -6.18836  -6.18618  -1.09768  -1.05004
 Alpha  occ. eigenvalues --   -0.96534  -0.87778  -0.83506  -0.63816  -0.61796
 Alpha  occ. eigenvalues --   -0.60052  -0.59454  -0.59267  -0.57381  -0.52546
 Alpha  occ. eigenvalues --   -0.51178  -0.46350  -0.45131  -0.35278  -0.34731
 Alpha virt. eigenvalues --    0.03399   0.03694   0.04388   0.04642   0.06086
 Alpha virt. eigenvalues --    0.06618   0.06800   0.07856   0.08932   0.10148
 Alpha virt. eigenvalues --    0.10533   0.12957   0.13398   0.14442   0.14700

 Mulliken charges:
               1
     1  H    0.126466
     2  H    0.146464
     3  H    0.090261
     4  H    0.658525
     5  C   -0.662193
     6  S   -0.273610
     7  H    0.202948
     8  H    0.074624
     9  H    0.194923
    10  H    0.155137
    11  H    0.163587
    12  H    0.074469
    13  C   -0.515971
    14  S    0.103352
    15  C   -0.538982
 Sum of Mulliken charges =  -0.00000

 Dipole moment (field-independent basis, Debye):
    X=             -0.7599    Y=              1.3246    Z=              0.9660  Tot=              1.8070

 Test job not archived.
 1\1\GINC-SE135\SP\RHF\Aug-CC-pVDZ\C3H10S2\OHZDE\09-Apr-2025\0\\#t hf a
 ug-cc-pvdz iop(5/13=1,5/36=2,99/5=2) pseudo=read geom=check guess=(rea
 d,tcheck) scf=(maxcycle=1)\\title\\0,1\H,0,2.306559,-2.0578968,-0.6495
 2301\H,0,3.32031438,-1.47471252,0.67641305\H,0,2.52307119,-0.31083024,
 -0.38882585\H,0,0.07002633,-1.01993654,0.36023035\C,0,2.42249764,-1.27
 751778,0.09684023\S,0,1.02865784,-1.2837739,1.27093846\H,0,0.87794009,
 1.27149409,0.24584747\H,0,-0.03486865,2.55013518,-0.59747342\H,0,0.979
 99641,1.43050329,-1.51981124\H,0,-2.82776494,0.02969453,0.63808768\H,0

 Normal termination of Gaussian 16 at Wed Apr  9 04:10:30 2025.
