 Gaussian 16, Revision C.01,

 ----------------------------------------------------------------------
 #t hf aug-cc-pvdz symm=none int=(grid=ultrafine) guess=(read,tcheck) s
 table=(opt,rrhf)
 ----------------------------------------------------------------------
 -----
 title
 -----
 Symbolic Z-matrix:
 Charge =  0 Multiplicity = 1

 SCF Done:  E(RHF) =  -952.355361226     A.U. after   15 cycles

 1\1\GINC-SE222\Stability\RHF\Aug-CC-pVDZ\C4H10S2\OHZDE\09-Apr-2025\0\\
 #t hf aug-cc-pvdz symm=none int=(grid=ultrafine) guess=(read,tcheck) s
 table=(opt,rrhf)\\title\\0,1\H,0,1.94048627,-0.28311522,0.30003006\H,0
 ,2.70886397,-1.74966836,-0.33633756\H,0,2.5169729,-1.54996222,1.410513
 58\H,0,-0.19256655,-1.5118813,1.21090974\C,0,2.06439688,-1.35234501,0.
 4434425\S,0,0.46794236,-2.21627191,0.2804649\H,0,-2.45144605,0.3832328
 1,0.29022855\H,0,-2.50941053,0.83970845,-1.42594063\H,0,-1.86753934,-0
 .72697469,-0.97246751\H,0,1.1941753,1.31538632,-1.76505845\H,0,0.41763

 Normal termination of Gaussian 16 at Wed Apr  9 19:23:13 2025.
 Gaussian 16:  ES64L-G16RevC.01  3-Jul-2019

 ----------------------------------------------------------------------
 #t hf aug-cc-pvdz iop(5/13=1,5/36=2,99/5=2) pseudo=read geom=check gue
 ss=(read,tcheck) scf=(maxcycle=1)
 ----------------------------------------------------------------------
 -----
 title
 -----
 Structure from the checkpoint file:  "HB300SPXx10_1023_4.06_0.90_methanethiol_thioacetone_dimer_mol1.chk"
 Charge =  0 Multiplicity = 1

                         Standard orientation:
 ---------------------------------------------------------------------
 Center     Atomic      Atomic             Coordinates (Angstroms)
 Number     Number       Type             X           Y           Z
 ---------------------------------------------------------------------
      1          1           0        1.070029   -1.360592    0.669317
      2          1           0        2.561308   -0.810210    1.456282
      3          1           0        2.653773   -1.693798   -0.073069
      4          1           0        1.286196    0.247192   -1.394123
      5          6           0        2.072217   -0.978183    0.500334
      6         16           0        2.014793    0.638727   -0.338655
      7          1           0       -1.599734    1.314824   -1.664714
      8          1           0       -2.366168    2.020697   -0.225517
      9          1           0       -0.628374    2.138444   -0.421324
     10          1           0       -1.072215   -0.579943    2.145175
     11          1           0       -0.162402    0.906039    1.793617
     12          6           0       -1.487942    1.488396   -0.599941
     13          6           0       -1.310197    0.209348    0.157937
     14         16           0       -1.319145   -1.247817   -0.566568
     15          6           0       -1.103934    0.374802    1.631451
     16          1           0       -1.893651    0.996615    2.059234
 ---------------------------------------------------------------------

 SCF Done:  E(RHF) =  -952.648105112     A.U. after    2 cycles

 The electronic state is 1-A.
 Alpha  occ. eigenvalues --  -93.94766 -93.92185 -11.33270 -11.26343 -11.25010
 Alpha  occ. eigenvalues --  -11.24920  -8.22872  -8.20498  -6.20735  -6.20590
 Alpha  occ. eigenvalues --   -6.20365  -6.18318  -6.18125  -6.17904  -1.13503
 Alpha  occ. eigenvalues --   -1.06083  -0.97538  -0.97122  -0.88389  -0.73226
 Alpha  occ. eigenvalues --   -0.63094  -0.62105  -0.62078  -0.61425  -0.59329
 Alpha  occ. eigenvalues --   -0.56558  -0.53941  -0.53422  -0.50610  -0.46842
 Alpha  occ. eigenvalues --   -0.39307  -0.36640  -0.34288
 Alpha virt. eigenvalues --    0.03237   0.03627   0.04059   0.04584   0.05741
 Alpha virt. eigenvalues --    0.05936   0.06494   0.07094   0.07876   0.08839
 Alpha virt. eigenvalues --    0.09496   0.10281   0.11676   0.12268   0.13303

 Mulliken charges:
               1
     1  H    0.151148
     2  H    0.181019
     3  H    0.099202
     4  H    0.406828
     5  C   -0.609235
     6  S   -0.209023
     7  H    0.173154
     8  H    0.233147
     9  H    0.262061
    10  H    0.160599
    11  H    0.328131
    12  C   -0.443159
    13  C   -0.499494
    14  S   -0.014263
    15  C   -0.378476
    16  H    0.158361
 Sum of Mulliken charges =  -0.00000

 Dipole moment (field-independent basis, Debye):
    X=             -0.3706    Y=              1.4287    Z=              1.6011  Tot=              2.1776

 Test job not archived.
 1\1\GINC-SE222\SP\RHF\Aug-CC-pVDZ\C4H10S2\OHZDE\09-Apr-2025\0\\#t hf a
 ug-cc-pvdz iop(5/13=1,5/36=2,99/5=2) pseudo=read geom=check guess=(rea
 d,tcheck) scf=(maxcycle=1)\\title\\0,1\H,0,1.94048627,-0.28311522,0.30
 003006\H,0,2.70886397,-1.74966836,-0.33633756\H,0,2.5169729,-1.5499622
 2,1.41051358\H,0,-0.19256655,-1.5118813,1.21090974\C,0,2.06439688,-1.3
 5234501,0.4434425\S,0,0.46794236,-2.21627191,0.2804649\H,0,-2.45144605
 ,0.38323281,0.29022855\H,0,-2.50941053,0.83970845,-1.42594063\H,0,-1.8
 6753934,-0.72697469,-0.97246751\H,0,1.1941753,1.31538632,-1.76505845\H

 Normal termination of Gaussian 16 at Wed Apr  9 19:23:19 2025.
