 Gaussian 16, Revision C.01,

 ----------------------------------------------------------------------
 #t hf aug-cc-pvdz symm=none int=(grid=ultrafine) guess=(read,tcheck) s
 table=(opt,rrhf)
 ----------------------------------------------------------------------
 -----
 title
 -----
 Symbolic Z-matrix:
 Charge =  0 Multiplicity = 1

 SCF Done:  E(RHF) =  -797.393607874     A.U. after   10 cycles
 Normal termination of Gaussian 16 at Wed Apr  9 19:28:40 2025.
 Gaussian 16:  ES64L-G16RevC.01  3-Jul-2019

 ----------------------------------------------------------------------
 #t hf aug-cc-pvdz iop(5/13=1,5/36=2,99/5=2) pseudo=read geom=check gue
 ss=(read,tcheck) scf=(maxcycle=1)
 ----------------------------------------------------------------------
 -----
 title
 -----
 Structure from the checkpoint file:  "HB300SPXx10_1223_4.27_0.90_sulfane_sulfane_dimer_mol1.chk"
 Charge =  0 Multiplicity = 1

                         Standard orientation:
 ---------------------------------------------------------------------
 Center     Atomic      Atomic             Coordinates (Angstroms)
 Number     Number       Type             X           Y           Z
 ---------------------------------------------------------------------
      1          1           0       -0.599627   -0.079972   -0.108603
      2          1           0       -1.991774    1.263093    0.082572
      3         16           0       -1.941069   -0.074191   -0.003196
      4          1           0        1.815544    0.374517    1.219221
      5          1           0        2.017238    1.133785   -0.554463
      6         16           0        1.863483   -0.094023   -0.036725
 ---------------------------------------------------------------------

 SCF Done:  E(RHF) =  -797.520151139     A.U. after    2 cycles

 The electronic state is 1-A.
 Alpha  occ. eigenvalues --  -93.97736 -93.94876  -8.25835  -8.23008  -6.23702
 Alpha  occ. eigenvalues --   -6.23587  -6.23348  -6.20884  -6.20769  -6.20526
 Alpha  occ. eigenvalues --   -1.03529  -1.00601  -0.61074  -0.58971  -0.52284
 Alpha  occ. eigenvalues --   -0.50118  -0.40189  -0.37997
 Alpha virt. eigenvalues --    0.02990   0.05226   0.05644   0.06702   0.10783
 Alpha virt. eigenvalues --    0.11532   0.11795   0.13682   0.14391   0.15163
 Alpha virt. eigenvalues --    0.17789   0.19698   0.20501   0.22401   0.24692

 Mulliken charges:
               1
     1  H    0.360951
     2  H    0.249981
     3  S   -0.544834
     4  H    0.298627
     5  H    0.289232
     6  S   -0.653956
 Sum of Mulliken charges =  -0.00000

 Dipole moment (field-independent basis, Debye):
    X=              1.5126    Y=              1.8772    Z=              0.4441  Tot=              2.4513

 Test job not archived.
 1\1\GINC-SE104\SP\RHF\Aug-CC-pVDZ\H4S2\OHZDE\09-Apr-2025\0\\#t hf aug-
 cc-pvdz iop(5/13=1,5/36=2,99/5=2) pseudo=read geom=check guess=(read,t
 check) scf=(maxcycle=1)\\title\\0,1\H,0,0.53139832,0.64498716,-0.29055
 053\H,0,2.23879772,0.67266195,0.63813986\S,0,1.60273769,1.45777787,-0.
 24349168\H,0,-1.67772285,-0.33487896,1.11029634\H,0,-0.90975213,-1.850
 43805,0.17412163\S,0,-1.5242167,-0.70848961,-0.16879621\\Version=ES64L
 -G16RevC.01\State=1-A\HF=-797.5201511\RMSD=5.494e-03\Dipole=-0.2028028
 ,-0.7220188,0.6063567\Quadrupole=-1.1674499,0.3017021,0.8657478,-1.973

 Normal termination of Gaussian 16 at Wed Apr  9 19:28:42 2025.
