 Gaussian 16, Revision C.01,

 ----------------------------------------------------------------------
 #t hf aug-cc-pvdz symm=none int=(grid=ultrafine) guess=(read,tcheck) s
 table=(opt,rrhf)
 ----------------------------------------------------------------------
 -----
 title
 -----
 Symbolic Z-matrix:
 Charge =  0 Multiplicity = 1

 SCF Done:  E(RHF) =  -645.421457209     A.U. after   14 cycles
 Normal termination of Gaussian 16 at Wed Apr  9 19:29:08 2025.
 Gaussian 16:  ES64L-G16RevC.01  3-Jul-2019

 ----------------------------------------------------------------------
 #t hf aug-cc-pvdz iop(5/13=1,5/36=2,99/5=2) pseudo=read geom=check gue
 ss=(read,tcheck) scf=(maxcycle=1)
 ----------------------------------------------------------------------
 -----
 title
 -----
 Structure from the checkpoint file:  "HB300SPXx10_123_1.13_0.90_sulfane_pyridine_dimer_mol1.chk"
 Charge =  0 Multiplicity = 1

                         Standard orientation:
 ---------------------------------------------------------------------
 Center     Atomic      Atomic             Coordinates (Angstroms)
 Number     Number       Type             X           Y           Z
 ---------------------------------------------------------------------
      1          1           0        1.894509   -0.306011   -0.026459
      2          1           0        3.351003   -0.040212    1.252511
      3         16           0        3.212543    0.011702   -0.080076
      4          1           0       -2.982683   -1.819422   -0.002502
      5          1           0       -0.543859   -2.292453   -0.001353
      6          6           0       -2.687976    0.316568    0.000589
      7          6           0       -2.270814   -1.007197   -0.000579
      8          6           0       -0.907837   -1.272713    0.000227
      9          7           0        0.019094   -0.315488    0.002353
     10          6           0       -0.388415    0.953253    0.003268
     11          6           0       -1.728141    1.318726    0.002504
     12          1           0        0.393022    1.703266    0.003859
     13          1           0       -2.006707    2.362178    0.002979
     14          1           0       -3.740535    0.562015   -0.000349
 ---------------------------------------------------------------------

 SCF Done:  E(RHF) =  -645.739086848     A.U. after    2 cycles

 The electronic state is 1-A.
 Alpha  occ. eigenvalues --  -93.92335 -15.52017 -11.29469 -11.29300 -11.27866
 Alpha  occ. eigenvalues --  -11.26030 -11.25990  -8.20523  -6.18405  -6.18283
 Alpha  occ. eigenvalues --   -6.18063  -1.27838  -1.10752  -1.05442  -0.98533
 Alpha  occ. eigenvalues --   -0.89321  -0.88348  -0.75526  -0.70511  -0.67441
 Alpha  occ. eigenvalues --   -0.62719  -0.62475  -0.58020  -0.55986  -0.54990
 Alpha  occ. eigenvalues --   -0.49448  -0.44104  -0.41986  -0.37145  -0.36032
 Alpha virt. eigenvalues --    0.02785   0.03471   0.03850   0.05401   0.05542
 Alpha virt. eigenvalues --    0.06519   0.07380   0.08824   0.08993   0.10239
 Alpha virt. eigenvalues --    0.10750   0.12244   0.12363   0.13185   0.13575

 Mulliken charges:
               1
     1  H    0.501586
     2  H    0.228594
     3  S   -0.643376
     4  H   -0.189660
     5  H   -0.219823
     6  C    0.109259
     7  C    0.682504
     8  C   -0.685930
     9  N    0.874720
    10  C   -0.731312
    11  C    0.737457
    12  H   -0.302595
    13  H   -0.191930
    14  H   -0.169494
 Sum of Mulliken charges =  -0.00000

 Dipole moment (field-independent basis, Debye):
    X=             -4.8407    Y=              0.2741    Z=              0.8324  Tot=              4.9193

 Test job not archived.
 1\1\GINC-SE229\SP\RHF\Aug-CC-pVDZ\C5H7N1S1\OHZDE\09-Apr-2025\0\\#t hf
 aug-cc-pvdz iop(5/13=1,5/36=2,99/5=2) pseudo=read geom=check guess=(re
 ad,tcheck) scf=(maxcycle=1)\\title\\0,1\H,0,1.25021154,1.5960457,0.136
 91261\H,0,3.15091491,1.84193998,0.53016902\S,0,2.02337536,2.53859467,0
 .73260516\H,0,-1.737469,-1.70023497,-2.3703353\H,0,-0.19908664,0.24941
 562,-2.30815224\C,0,-1.61018795,-2.01815513,-0.24147633\C,0,-1.3135879
 2,-1.37117852,-1.43304274\C,0,-0.45367807,-0.28139462,-1.39943018\N,0,
 0.10075378,0.17255512,-0.27603333\C,0,-0.18848099,-0.45317609,0.864392

 Normal termination of Gaussian 16 at Wed Apr  9 19:29:13 2025.
