 Gaussian 16, Revision C.01,

 ----------------------------------------------------------------------
 #t hf aug-cc-pvdz symm=none int=(grid=ultrafine) guess=(read,tcheck) s
 table=(opt,rrhf)
 ----------------------------------------------------------------------
 -----
 title
 -----
 Symbolic Z-matrix:
 Charge =  0 Multiplicity = 1

 SCF Done:  E(RHF) =  -1312.03301026     A.U. after   13 cycles

 1\1\GINC-SE026\Stability\RHF\Aug-CC-pVDZ\C3H10S3\OHZDE\09-Apr-2025\0\\
 #t hf aug-cc-pvdz symm=none int=(grid=ultrafine) guess=(read,tcheck) s
 table=(opt,rrhf)\\title\\0,1\H,0,1.01554051,-2.06430295,-0.26345232\H,
 0,1.41221348,-3.50790796,0.68330627\H,0,2.28776701,-1.9997821,0.978385
 09\H,0,0.09227498,-0.7095981,1.83267489\C,0,1.324424,-2.42503809,0.712
 77693\S,0,0.06941485,-2.04508424,1.97921636\H,0,-2.88462704,0.72714453
 ,0.44773386\H,0,-1.8340386,-0.60005052,-0.08818336\H,0,-2.46052067,0.5
 9235748,-1.26880843\H,0,0.35582085,2.94542742,-2.5242975\H,0,-0.658901

 Normal termination of Gaussian 16 at Wed Apr  9 04:10:39 2025.
 Gaussian 16:  ES64L-G16RevC.01  3-Jul-2019

 ----------------------------------------------------------------------
 #t hf aug-cc-pvdz iop(5/13=1,5/36=2,99/5=2) pseudo=read geom=check gue
 ss=(read,tcheck) scf=(maxcycle=1)
 ----------------------------------------------------------------------
 -----
 title
 -----
 Structure from the checkpoint file:  "HB300SPXx10_1176_4.22_1.05_methanethiol_dimethyldisulfide_dimer_mol1.chk"
 Charge =  0 Multiplicity = 1

                         Standard orientation:
 ---------------------------------------------------------------------
 Center     Atomic      Atomic             Coordinates (Angstroms)
 Number     Number       Type             X           Y           Z
 ---------------------------------------------------------------------
      1          1           0        1.606307   -1.536286    0.828879
      2          1           0        3.351003   -1.834122    0.899781
      3          1           0        2.488606   -2.044382   -0.629981
      4          1           0        1.836237    0.555652   -0.799716
      5          6           0        2.540595   -1.456652    0.281770
      6         16           0        2.940113    0.284152   -0.083290
      7          1           0       -0.450814    2.853181    0.728354
      8          1           0        0.317176    1.362111    1.310843
      9          1           0       -1.411570    1.683412    1.652010
     10          1           0       -3.714153   -0.652507   -0.418392
     11          1           0       -3.191774   -0.416003    1.270915
     12          1           0       -3.263352   -2.049326    0.584115
     13          6           0       -0.604862    1.794336    0.933089
     14         16           0       -1.049981    1.035599   -0.660515
     15         16           0       -1.319570   -0.940368   -0.188763
     16          6           0       -3.051843   -1.002994    0.367522
 ---------------------------------------------------------------------

 SCF Done:  E(RHF) =  -1312.35235527     A.U. after    2 cycles

 The electronic state is 1-A.
 Alpha  occ. eigenvalues --  -93.97237 -93.97229 -93.93977 -11.27399 -11.26972
 Alpha  occ. eigenvalues --  -11.26013  -8.25255  -8.25224  -8.22070  -6.23076
 Alpha  occ. eigenvalues --   -6.23026  -6.22848  -6.22825  -6.22622  -6.22607
 Alpha  occ. eigenvalues --   -6.19932  -6.19788  -6.19560  -1.12300  -1.05332
 Alpha  occ. eigenvalues --   -1.02970  -0.92362  -0.87744  -0.81322  -0.62399
 Alpha  occ. eigenvalues --   -0.61615  -0.61019  -0.60362  -0.59067  -0.59037
 Alpha  occ. eigenvalues --   -0.54563  -0.52808  -0.50426  -0.46105  -0.45302
 Alpha  occ. eigenvalues --   -0.37111  -0.36133  -0.35682
 Alpha virt. eigenvalues --    0.03237   0.03723   0.04183   0.04813   0.05724
 Alpha virt. eigenvalues --    0.06086   0.06819   0.07487   0.07888   0.09199
 Alpha virt. eigenvalues --    0.09742   0.11453   0.12510   0.12850   0.13697

 Mulliken charges:
               1
     1  H    0.132867
     2  H    0.148471
     3  H    0.145318
     4  H    0.408675
     5  C   -0.646156
     6  S   -0.156713
     7  H    0.202442
     8  H    0.138356
     9  H    0.159169
    10  H    0.221558
    11  H    0.181865
    12  H    0.172464
    13  C   -0.595326
    14  S    0.063270
    15  S    0.230865
    16  C   -0.807124
 Sum of Mulliken charges =  -0.00000

 Dipole moment (field-independent basis, Debye):
    X=             -2.4992    Y=             -0.6799    Z=              1.8024  Tot=              3.1555

 Test job not archived.
 1\1\GINC-SE026\SP\RHF\Aug-CC-pVDZ\C3H10S3\OHZDE\09-Apr-2025\0\\#t hf a
 ug-cc-pvdz iop(5/13=1,5/36=2,99/5=2) pseudo=read geom=check guess=(rea
 d,tcheck) scf=(maxcycle=1)\\title\\0,1\H,0,1.01554051,-2.06430295,-0.2
 6345232\H,0,1.41221348,-3.50790796,0.68330627\H,0,2.28776701,-1.999782
 1,0.97838509\H,0,0.09227498,-0.7095981,1.83267489\C,0,1.324424,-2.4250
 3809,0.71277693\S,0,0.06941485,-2.04508424,1.97921636\H,0,-2.88462704,
 0.72714453,0.44773386\H,0,-1.8340386,-0.60005052,-0.08818336\H,0,-2.46
 052067,0.59235748,-1.26880843\H,0,0.35582085,2.94542742,-2.5242975\H,0

 Normal termination of Gaussian 16 at Wed Apr  9 04:10:45 2025.
