 Gaussian 16, Revision C.01,

 ----------------------------------------------------------------------
 #t hf aug-cc-pvdz symm=none int=(grid=ultrafine) guess=(read,tcheck) s
 table=(opt,rrhf)
 ----------------------------------------------------------------------
 -----
 title
 -----
 Symbolic Z-matrix:
 Charge =  0 Multiplicity = 1

 SCF Done:  E(RHF) =  -704.600377528     A.U. after   13 cycles
 Normal termination of Gaussian 16 at Wed Apr  9 19:26:26 2025.
 Gaussian 16:  ES64L-G16RevC.01  3-Jul-2019

 ----------------------------------------------------------------------
 #t hf aug-cc-pvdz iop(5/13=1,5/36=2,99/5=2) pseudo=read geom=check gue
 ss=(read,tcheck) scf=(maxcycle=1)
 ----------------------------------------------------------------------
 -----
 title
 -----
 Structure from the checkpoint file:  "HB300SPXx10_1121_4.16_0.80_aceticacid_dimethylsulfide_dimer_mol1.chk"
 Charge =  0 Multiplicity = 1

                         Standard orientation:
 ---------------------------------------------------------------------
 Center     Atomic      Atomic             Coordinates (Angstroms)
 Number     Number       Type             X           Y           Z
 ---------------------------------------------------------------------
      1          6           0        0.280790    1.615629   -0.000000
      2          8           0       -0.876859    1.265222   -0.000000
      3          8           0        1.309806    0.760767   -0.000000
      4          1           0        0.966336   -0.167265    0.000000
      5          6           0        0.738892    3.048103   -0.000000
      6          1           0       -0.120131    3.709721   -0.000000
      7          1           0        1.356879    3.236979    0.876781
      8          1           0        1.356879    3.236979   -0.876781
      9          1           0       -1.707557   -2.145347    1.379195
     10          1           0       -1.241447   -0.421121    1.315483
     11          1           0       -0.306825   -1.571509    2.299403
     12          1           0       -0.306825   -1.571509   -2.299403
     13          1           0       -1.241447   -0.421121   -1.315483
     14          1           0       -1.707557   -2.145347   -1.379195
     15          6           0       -0.876859   -1.443074    1.382643
     16         16           0        0.243271   -1.788368    0.000000
     17          6           0       -0.876859   -1.443074   -1.382643
 ---------------------------------------------------------------------

 SCF Done:  E(RHF) =  -704.982644351     A.U. after    2 cycles

 The electronic state is 1-A'.
 Alpha  occ. eigenvalues --  -93.95060 -20.55871 -20.52345 -11.38351 -11.26002
 Alpha  occ. eigenvalues --  -11.25974 -11.24352  -8.23415  -6.21211  -6.21062
 Alpha  occ. eigenvalues --   -6.20915  -1.52788  -1.43648  -1.10039  -1.01991
 Alpha  occ. eigenvalues --   -0.96175  -0.84896  -0.80507  -0.70271  -0.67580
 Alpha  occ. eigenvalues --   -0.64010  -0.62205  -0.61227  -0.58978  -0.57721
 Alpha  occ. eigenvalues --   -0.57148  -0.55379  -0.54354  -0.51023  -0.45671
 Alpha  occ. eigenvalues --   -0.45524  -0.43096  -0.36243
 Alpha virt. eigenvalues --    0.03788   0.03873   0.03991   0.04846   0.06071
 Alpha virt. eigenvalues --    0.06158   0.07086   0.07368   0.08026   0.08967
 Alpha virt. eigenvalues --    0.11103   0.11396   0.13059   0.14247   0.14676

 Mulliken charges:
               1
     1  C    1.779740
     2  O   -1.232304
     3  O   -1.553628
     4  H    1.142693
     5  C   -0.457522
     6  H    0.182483
     7  H    0.230704
     8  H    0.230704
     9  H    0.142429
    10  H    0.164951
    11  H    0.147363
    12  H    0.147363
    13  H    0.164951
    14  H    0.142429
    15  C   -0.511494
    16  S   -0.209367
    17  C   -0.511494
 Sum of Mulliken charges =  -0.00000

 Dipole moment (field-independent basis, Debye):
    X=             -0.3979    Y=              0.1412    Z=             -0.0000  Tot=              0.4222

 Test job not archived.
 1\1\GINC-SE145\SP\RHF\Aug-CC-pVDZ\C4H10O2S1\OHZDE\09-Apr-2025\0\\#t hf
  aug-cc-pvdz iop(5/13=1,5/36=2,99/5=2) pseudo=read geom=check guess=(r
 ead,tcheck) scf=(maxcycle=1)\\title\\0,1\C,0,0.08152563,1.86646531,0.\
 O,0,1.12794826,1.25988757,0.\O,0,-1.11612638,1.27040068,0.\H,0,-0.9946
 6015,0.28833063,0.\C,0,-0.03582077,3.36582142,0.\H,0,0.95204799,3.8127
 8193,0.\H,0,-0.5940149,3.69140047,-0.87678098\H,0,-0.5940149,3.6914004
 7,0.87678098\H,0,1.15427315,-2.25029033,-1.37919498\H,0,1.09604659,-0.
 46512234,-1.31548339\H,0,-0.07750735,-1.37048569,-2.29940307\H,0,-0.07

 Normal termination of Gaussian 16 at Wed Apr  9 19:26:31 2025.
