 Gaussian 16, Revision C.01,

 ----------------------------------------------------------------------
 #t hf aug-cc-pvdz symm=none int=(grid=ultrafine) guess=(read,tcheck) s
 table=(opt,rrhf)
 ----------------------------------------------------------------------
 -----
 title
 -----
 Symbolic Z-matrix:
 Charge =  0 Multiplicity = 1

 SCF Done:  E(RHF) =  -747.036685089     A.U. after   14 cycles
 Normal termination of Gaussian 16 at Wed Apr  9 19:33:35 2025.
 Gaussian 16:  ES64L-G16RevC.01  3-Jul-2019

 ----------------------------------------------------------------------
 #t hf aug-cc-pvdz iop(5/13=1,5/36=2,99/5=2) pseudo=read geom=check gue
 ss=(read,tcheck) scf=(maxcycle=1)
 ----------------------------------------------------------------------
 -----
 title
 -----
 Structure from the checkpoint file:  "HB300SPXx10_1451_5.08_0.80_methylcyanate_phosphineF2_dimer_mol1.chk"
 Charge =  0 Multiplicity = 1

                         Standard orientation:
 ---------------------------------------------------------------------
 Center     Atomic      Atomic             Coordinates (Angstroms)
 Number     Number       Type             X           Y           Z
 ---------------------------------------------------------------------
      1          1           0       -2.510378   -1.061412    1.326183
      2          1           0       -3.096535   -1.794519   -0.194826
      3          1           0       -1.337578   -1.635593    0.100328
      4          6           0       -2.317617   -1.200019    0.265848
      5          8           0       -2.387568    0.097732   -0.406908
      6          6           0       -1.515613    0.958375   -0.041276
      7          7           0       -0.735248    1.754243    0.262414
      8         15           0        1.473789    0.319835   -0.159991
      9          9           0        0.540080   -0.992472   -0.077452
     10          9           0        2.881612   -0.410499    0.082150
     11          1           0        1.289092    0.709042    1.196839
 ---------------------------------------------------------------------

 SCF Done:  E(RHF) =  -747.464323304     A.U. after    2 cycles

 The electronic state is 1-A.
 Alpha  occ. eigenvalues --  -84.39837 -26.48378 -26.46626 -20.65558 -15.52325
 Alpha  occ. eigenvalues --  -11.36389 -11.33714  -6.85496  -4.38325  -4.37728
 Alpha  occ. eigenvalues --   -4.36575  -1.62017  -1.58590  -1.57196  -1.25568
 Alpha  occ. eigenvalues --   -1.01933  -0.88136  -0.81076  -0.73088  -0.71254
 Alpha  occ. eigenvalues --   -0.70853  -0.69912  -0.68422  -0.64424  -0.63983
 Alpha  occ. eigenvalues --   -0.61802  -0.59648  -0.59214  -0.56470  -0.50410
 Alpha  occ. eigenvalues --   -0.48063  -0.37112
 Alpha virt. eigenvalues --    0.02862   0.04487   0.05450   0.05700   0.07408
 Alpha virt. eigenvalues --    0.09309   0.09643   0.10406   0.11391   0.11724
 Alpha virt. eigenvalues --    0.13496   0.14256   0.14977   0.15479   0.15818

 Mulliken charges:
               1
     1  H    0.146787
     2  H    0.033224
     3  H    0.199980
     4  C    0.396543
     5  O   -1.052369
     6  C   -0.527698
     7  N    0.850081
     8  P    1.431229
     9  F   -0.902257
    10  F   -0.748248
    11  H    0.172728
 Sum of Mulliken charges =   0.00000

 Dipole moment (field-independent basis, Debye):
    X=             -3.3986    Y=             -2.8688    Z=              0.4730  Tot=              4.4727

 Test job not archived.
 1\1\GINC-SE162\SP\RHF\Aug-CC-pVDZ\C2H4F2N1O1P1\OHZDE\09-Apr-2025\0\\#t
  hf aug-cc-pvdz iop(5/13=1,5/36=2,99/5=2) pseudo=read geom=check guess
 =(read,tcheck) scf=(maxcycle=1)\\title\\0,1\H,0,-2.89287834,1.38344137
 ,-2.41875402\H,0,-2.88368966,0.15494314,-3.71690786\H,0,-2.33807438,-0
 .28314113,-2.0686702\C,0,-2.39546429,0.50243917,-2.8151059\O,0,-1.0419
 8507,0.86597867,-3.23651367\C,0,-0.26338211,1.27221362,-2.30729377\N,0
 ,0.4658792,1.6354549,-1.48824768\P,0,0.26118849,-0.44369977,0.17037027
 \F,0,-1.12641375,-0.79594142,-0.57209914\F,0,0.01392836,-1.31158332,1.

 Normal termination of Gaussian 16 at Wed Apr  9 19:33:39 2025.
