 Gaussian 16, Revision C.01,

 ----------------------------------------------------------------------
 #t hf aug-cc-pvdz symm=none int=(grid=ultrafine) guess=(read,tcheck) s
 table=(opt,rrhf)
 ----------------------------------------------------------------------
 -----
 title
 -----
 Symbolic Z-matrix:
 Charge =  0 Multiplicity = 1

 SCF Done:  E(RHF) =  -605.473758208     A.U. after   13 cycles
 Normal termination of Gaussian 16 at Wed Apr  9 19:25:46 2025.
 Gaussian 16:  ES64L-G16RevC.01  3-Jul-2019

 ----------------------------------------------------------------------
 #t hf aug-cc-pvdz iop(5/13=1,5/36=2,99/5=2) pseudo=read geom=check gue
 ss=(read,tcheck) scf=(maxcycle=1)
 ----------------------------------------------------------------------
 -----
 title
 -----
 Structure from the checkpoint file:  "HB300SPXx10_112_1.12_0.85_sulfane_methylcyanate_dimer_mol1.chk"
 Charge =  0 Multiplicity = 1

                         Standard orientation:
 ---------------------------------------------------------------------
 Center     Atomic      Atomic             Coordinates (Angstroms)
 Number     Number       Type             X           Y           Z
 ---------------------------------------------------------------------
      1          1           0        1.369986    0.865471    0.030305
      2          1           0        2.365883   -0.351624    1.172072
      3         16           0        2.044494   -0.286446   -0.128318
      4          1           0       -1.715551   -1.271201    1.311532
      5          1           0       -2.061741   -2.115796   -0.224892
      6          1           0       -0.388009   -1.596431    0.151646
      7          6           0       -1.445054   -1.371636    0.263682
      8          8           0       -1.746243   -0.119235   -0.429282
      9          6           0       -1.066202    0.898946   -0.054290
     10          7           0       -0.463572    1.834677    0.255762
 ---------------------------------------------------------------------

 SCF Done:  E(RHF) =  -605.741456344     A.U. after    2 cycles

 The electronic state is 1-A.
 Alpha  occ. eigenvalues --  -93.95270 -20.64964 -15.51395 -11.35287 -11.33573
 Alpha  occ. eigenvalues --   -8.23444  -6.21320  -6.21204  -6.20975  -1.57884
 Alpha  occ. eigenvalues --   -1.24327  -1.01701  -1.01168  -0.80543  -0.71410
 Alpha  occ. eigenvalues --   -0.70169  -0.62655  -0.60494  -0.59107  -0.57716
 Alpha  occ. eigenvalues --   -0.51294  -0.48900  -0.46641  -0.38678
 Alpha virt. eigenvalues --    0.02845   0.04224   0.04880   0.05720   0.07574
 Alpha virt. eigenvalues --    0.09043   0.10742   0.11183   0.11678   0.12940
 Alpha virt. eigenvalues --    0.14095   0.14604   0.14909   0.15354   0.16064

 Mulliken charges:
               1
     1  H    0.455823
     2  H    0.264106
     3  S   -0.706680
     4  H    0.160110
     5  H    0.048727
     6  H    0.203088
     7  C    0.330269
     8  O   -1.047501
     9  C   -0.471462
    10  N    0.763519
 Sum of Mulliken charges =  -0.00000

 Dipole moment (field-independent basis, Debye):
    X=             -1.9270    Y=             -4.1817    Z=              0.9969  Tot=              4.7111

 Test job not archived.
 1\1\GINC-SE454\SP\RHF\Aug-CC-pVDZ\C2H5N1O1S1\OHZDE\09-Apr-2025\0\\#t h
 f aug-cc-pvdz iop(5/13=1,5/36=2,99/5=2) pseudo=read geom=check guess=(
 read,tcheck) scf=(maxcycle=1)\\title\\0,1\H,0,1.70020261,0.23216325,0.
 14198181\H,0,1.83071194,2.07603691,0.74186388\S,0,1.65222468,0.8789214
 7,1.31945248\H,0,-2.10276787,1.21588164,-0.4031454\H,0,-2.78300529,0.2
 4748635,0.93598604\H,0,-1.11198738,0.88524498,1.05373842\C,0,-1.884078
 55,0.50586086,0.39013303\O,0,-1.4310331,-0.75087107,-0.20551569\C,0,-0
 .32598042,-0.6920352,-0.84984787\N,0,0.67230754,-0.67373163,-1.4312035

 Normal termination of Gaussian 16 at Wed Apr  9 19:25:49 2025.
