 Gaussian 16, Revision C.01,

 ----------------------------------------------------------------------
 #t hf aug-cc-pvdz symm=none int=(grid=ultrafine) guess=(read,tcheck) s
 table=(opt,rrhf)
 ----------------------------------------------------------------------
 -----
 title
 -----
 Symbolic Z-matrix:
 Charge =  0 Multiplicity = 1

 SCF Done:  E(RHF) =  -977.978489846     A.U. after   13 cycles
 Normal termination of Gaussian 16 at Wed Apr  9 19:33:12 2025.
 Gaussian 16:  ES64L-G16RevC.01  3-Jul-2019

 ----------------------------------------------------------------------
 #t hf aug-cc-pvdz iop(5/13=1,5/36=2,99/5=2) pseudo=read geom=check gue
 ss=(read,tcheck) scf=(maxcycle=1)
 ----------------------------------------------------------------------
 -----
 title
 -----
 Structure from the checkpoint file:  "HB300SPXx10_1441_5.07_0.80_methanethiol_phosphineF2_dimer_mol1.chk"
 Charge =  0 Multiplicity = 1

                         Standard orientation:
 ---------------------------------------------------------------------
 Center     Atomic      Atomic             Coordinates (Angstroms)
 Number     Number       Type             X           Y           Z
 ---------------------------------------------------------------------
      1          1           0        1.170285    1.629016   -0.027337
      2          1           0        1.727058    0.930382   -1.554187
      3          1           0        2.909106    1.322989   -0.296137
      4          1           0        1.846914   -0.477736    1.428499
      5          6           0        1.900509    0.967342   -0.482245
      6         16           0        1.690153   -0.738340    0.121930
      7         15           0       -1.024302   -0.217168   -0.295502
      8          9           0       -0.696801    0.967982    0.735289
      9          9           0       -2.624737   -0.174049   -0.158500
     10          1           0       -0.840488   -1.283142    0.633175
 ---------------------------------------------------------------------

 SCF Done:  E(RHF) =  -978.312110436     A.U. after    2 cycles

 The electronic state is 1-A.
 Alpha  occ. eigenvalues --  -93.96764 -84.39798 -26.47558 -26.46124 -11.27650
 Alpha  occ. eigenvalues --   -8.24981  -6.85410  -6.22807  -6.22661  -6.22481
 Alpha  occ. eigenvalues --   -4.38267  -4.37616  -4.36553  -1.61404  -1.56597
 Alpha  occ. eigenvalues --   -1.08320  -0.90622  -0.87141  -0.70482  -0.70129
 Alpha  occ. eigenvalues --   -0.69045  -0.63880  -0.63476  -0.62209  -0.58951
 Alpha  occ. eigenvalues --   -0.57366  -0.55167  -0.48275  -0.39428  -0.36560
 Alpha virt. eigenvalues --    0.03510   0.04260   0.04893   0.05921   0.07054
 Alpha virt. eigenvalues --    0.08671   0.09810   0.10233   0.11484   0.13062
 Alpha virt. eigenvalues --    0.13772   0.15387   0.16162   0.16385   0.16993

 Mulliken charges:
               1
     1  H    0.166814
     2  H    0.217399
     3  H    0.081280
     4  H    0.394211
     5  C   -0.598073
     6  S   -0.289309
     7  P    1.532328
     8  F   -0.825276
     9  F   -0.780960
    10  H    0.101585
 Sum of Mulliken charges =  -0.00000

 Dipole moment (field-independent basis, Debye):
    X=              2.2339    Y=              0.3782    Z=              0.1052  Tot=              2.2681

 Test job not archived.
 1\1\GINC-SE035\SP\RHF\Aug-CC-pVDZ\C1H5F2P1S1\OHZDE\09-Apr-2025\0\\#t h
 f aug-cc-pvdz iop(5/13=1,5/36=2,99/5=2) pseudo=read geom=check guess=(
 read,tcheck) scf=(maxcycle=1)\\title\\0,1\H,0,-1.72434823,-0.02735536,
 -1.47402619\H,0,-1.29643549,-1.41515971,-2.4840979\H,0,-1.57230153,0.1
 6002765,-3.24353895\H,0,0.52779021,1.28305094,-1.94983564\C,0,-1.18500
 823,-0.34129171,-2.36202164\S,0,0.60124692,-0.03772908,-2.17289215\P,0
 ,0.19694585,-1.12222001,0.37162229\F,0,-0.84065869,0.09899271,0.451513
 \F,0,0.27606689,-1.42975603,1.9467995\H,0,1.37499157,-0.32015371,0.333

 Normal termination of Gaussian 16 at Wed Apr  9 19:33:22 2025.
