 Gaussian 16, Revision C.01,

 ----------------------------------------------------------------------
 #t hf aug-cc-pvdz symm=none int=(grid=ultrafine) guess=(read,tcheck) s
 table=(opt,rrhf)
 ----------------------------------------------------------------------
 -----
 title
 -----
 Symbolic Z-matrix:
 Charge =  0 Multiplicity = 1

 SCF Done:  E(RHF) =  -645.423896422     A.U. after   13 cycles
 Normal termination of Gaussian 16 at Wed Apr  9 19:29:05 2025.
 Gaussian 16:  ES64L-G16RevC.01  3-Jul-2019

 ----------------------------------------------------------------------
 #t hf aug-cc-pvdz iop(5/13=1,5/36=2,99/5=2) pseudo=read geom=check gue
 ss=(read,tcheck) scf=(maxcycle=1)
 ----------------------------------------------------------------------
 -----
 title
 -----
 Structure from the checkpoint file:  "HB300SPXx10_130_1.13_2.00_sulfane_pyridine_dimer_mol1.chk"
 Charge =  0 Multiplicity = 1

                         Standard orientation:
 ---------------------------------------------------------------------
 Center     Atomic      Atomic             Coordinates (Angstroms)
 Number     Number       Type             X           Y           Z
 ---------------------------------------------------------------------
      1          1           0        3.498919   -0.301677   -0.033650
      2          1           0        4.949306   -0.037364    1.252549
      3         16           0        4.817546    0.014611   -0.080715
      4          1           0       -3.672293   -1.818939   -0.010123
      5          1           0       -1.234016   -2.294598    0.003211
      6          6           0       -3.375303    0.316732   -0.005692
      7          6           0       -2.959567   -1.007482   -0.004701
      8          6           0       -1.596899   -1.274467    0.002915
      9          7           0       -0.668958   -0.318241    0.009604
     10          6           0       -1.075099    0.950938    0.008411
     11          6           0       -2.414409    1.317855    0.000947
     12          1           0       -0.292866    1.700109    0.012852
     13          1           0       -2.691848    2.361607   -0.000029
     14          1           0       -4.427579    0.563313   -0.011891
 ---------------------------------------------------------------------

 SCF Done:  E(RHF) =  -645.740794627     A.U. after    2 cycles

 The electronic state is 1-A.
 Alpha  occ. eigenvalues --  -93.95774 -15.50691 -11.28290 -11.28287 -11.26877
 Alpha  occ. eigenvalues --  -11.25133 -11.25126  -8.23828  -6.21701  -6.21586
 Alpha  occ. eigenvalues --   -6.21336  -1.26418  -1.09665  -1.04402  -1.00991
 Alpha  occ. eigenvalues --   -0.88177  -0.87334  -0.74285  -0.69409  -0.66552
 Alpha  occ. eigenvalues --   -0.61694  -0.59909  -0.58873  -0.56696  -0.54066
 Alpha  occ. eigenvalues --   -0.50102  -0.45485  -0.40811  -0.38469  -0.36230
 Alpha virt. eigenvalues --    0.03100   0.03724   0.03738   0.04663   0.05366
 Alpha virt. eigenvalues --    0.06776   0.07568   0.08444   0.09768   0.10763
 Alpha virt. eigenvalues --    0.10920   0.11138   0.12154   0.12660   0.12764

 Mulliken charges:
               1
     1  H    0.262668
     2  H    0.267625
     3  S   -0.526396
     4  H   -0.194931
     5  H   -0.197642
     6  C    0.058307
     7  C    0.743170
     8  C   -0.724856
     9  N    0.879927
    10  C   -0.761045
    11  C    0.744572
    12  H   -0.204277
    13  H   -0.194965
    14  H   -0.152157
 Sum of Mulliken charges =  -0.00000

 Dipole moment (field-independent basis, Debye):
    X=             -3.5299    Y=              0.3693    Z=              0.8576  Tot=              3.6513

 Test job not archived.
 1\1\GINC-SE232\SP\RHF\Aug-CC-pVDZ\C5H7N1S1\OHZDE\09-Apr-2025\0\\#t hf
 aug-cc-pvdz iop(5/13=1,5/36=2,99/5=2) pseudo=read geom=check guess=(re
 ad,tcheck) scf=(maxcycle=1)\\title\\0,1\H,0,1.25021154,1.5960457,0.136
 91261\H,0,3.15091491,1.84193998,0.53016902\S,0,2.02337536,2.53859467,0
 .73260516\H,0,-3.14236181,-3.4400568,-2.875047\H,0,-1.60397945,-1.4904
 0621,-2.81286394\C,0,-3.01508076,-3.75797696,-0.74618803\C,0,-2.718480
 73,-3.11100035,-1.93775443\C,0,-1.85857089,-2.02121644,-1.90414188\N,0
 ,-1.30413903,-1.56726671,-0.78074502\C,0,-1.5933738,-2.19299791,0.3596

 Normal termination of Gaussian 16 at Wed Apr  9 19:29:09 2025.
