 Gaussian 16, Revision C.01,

 ----------------------------------------------------------------------
 #t hf aug-cc-pvdz symm=none int=(grid=ultrafine) guess=(read,tcheck) s
 table=(opt,rrhf)
 ----------------------------------------------------------------------
 -----
 title
 -----
 Symbolic Z-matrix:
 Charge =  0 Multiplicity = 1

 SCF Done:  E(RHF) =  -1121.32593822     A.U. after   13 cycles
 Normal termination of Gaussian 16 at Wed Apr  9 19:26:35 2025.
 Gaussian 16:  ES64L-G16RevC.01  3-Jul-2019

 ----------------------------------------------------------------------
 #t hf aug-cc-pvdz iop(5/13=1,5/36=2,99/5=2) pseudo=read geom=check gue
 ss=(read,tcheck) scf=(maxcycle=1)
 ----------------------------------------------------------------------
 -----
 title
 -----
 Structure from the checkpoint file:  "HB300SPXx10_1091_4.13_0.80_Nmethylacetamide_dimethyldisulfide_dimer_mol1.chk"
 Charge =  0 Multiplicity = 1

                         Standard orientation:
 ---------------------------------------------------------------------
 Center     Atomic      Atomic             Coordinates (Angstroms)
 Number     Number       Type             X           Y           Z
 ---------------------------------------------------------------------
      1          6           0       -1.532279    1.678255   -0.760027
      2          1           0       -0.872908    1.514087   -1.612343
      3          1           0       -0.961626    2.149103    0.038137
      4          1           0       -2.333012    2.340422   -1.077738
      5          6           0       -2.130005    0.345587   -0.353278
      6          8           0       -3.042737   -0.166241   -0.979213
      7          7           0       -1.567745   -0.226322    0.743544
      8          1           0       -0.738238    0.198430    1.124180
      9          6           0       -1.910001   -1.564633    1.178189
     10          1           0       -2.915597   -1.789596    0.836834
     11          1           0       -1.227052   -2.309001    0.763250
     12          1           0       -1.875739   -1.622310    2.264472
     13          1           0        2.567992   -2.161039   -1.756742
     14          1           0        3.164226   -1.897672   -0.103493
     15          1           0        3.318733   -0.612375   -1.331857
     16          1           0        0.949683    2.318514   -0.466672
     17          1           0        2.690519    1.945679   -0.361799
     18          1           0        1.875708    2.761462    0.985354
     19          6           0        2.699760   -1.425802   -0.964088
     20         16           0        1.028843   -0.839106   -0.543773
     21         16           0        1.368001    0.447684    1.016644
     22          6           0        1.759845    2.023464    0.192768
 ---------------------------------------------------------------------

 SCF Done:  E(RHF) =  -1121.79635049     A.U. after    2 cycles

 The electronic state is 1-A.
 Alpha  occ. eigenvalues --  -93.98537 -93.98076 -20.48575 -15.49877 -11.33780
 Alpha  occ. eigenvalues --  -11.28396 -11.27963 -11.24900 -11.23476  -8.26597
 Alpha  occ. eigenvalues --   -8.26086  -6.24394  -6.24187  -6.23995  -6.23881
 Alpha  occ. eigenvalues --   -6.23669  -6.23435  -1.43582  -1.22357  -1.13613
 Alpha  occ. eigenvalues --   -1.04207  -1.01275  -0.93873  -0.92964  -0.82888
 Alpha  occ. eigenvalues --   -0.80402  -0.69520  -0.66269  -0.63879  -0.63365
 Alpha  occ. eigenvalues --   -0.62309  -0.61762  -0.60092  -0.58472  -0.57122
 Alpha  occ. eigenvalues --   -0.56082  -0.55068  -0.54123  -0.51692  -0.49806
 Alpha  occ. eigenvalues --   -0.46300  -0.40696  -0.39448  -0.38432  -0.37189
 Alpha virt. eigenvalues --    0.02775   0.03076   0.03720   0.04261   0.05260
 Alpha virt. eigenvalues --    0.05521   0.05930   0.06725   0.07192   0.08152
 Alpha virt. eigenvalues --    0.08446   0.08728   0.09033   0.10904   0.11270

 Mulliken charges:
               1
     1  C   -0.439251
     2  H    0.302987
     3  H    0.245865
     4  H    0.099645
     5  C    0.487694
     6  O   -1.412098
     7  N    0.913912
     8  H    0.228448
     9  C   -0.396379
    10  H    0.051576
    11  H    0.197649
    12  H    0.111621
    13  H    0.172155
    14  H    0.205636
    15  H    0.173261
    16  H    0.018147
    17  H    0.105054
    18  H    0.242313
    19  C   -0.837521
    20  S    0.358068
    21  S   -0.215227
    22  C   -0.613556
 Sum of Mulliken charges =   0.00000

 Dipole moment (field-independent basis, Debye):
    X=              5.5952    Y=              1.5667    Z=              0.8269  Tot=              5.8690

 Test job not archived.
 1\1\GINC-SE212\SP\RHF\Aug-CC-pVDZ\C5H13N1O1S2\OHZDE\09-Apr-2025\0\\#t
 hf aug-cc-pvdz iop(5/13=1,5/36=2,99/5=2) pseudo=read geom=check guess=
 (read,tcheck) scf=(maxcycle=1)\\title\\0,1\C,0,-1.31055971,-0.36190707
 ,2.17525478\H,0,-0.76310857,0.57466921,2.28149083\H,0,-0.59510431,-1.1
 7658722,2.08130356\H,0,-1.91110445,-0.50300543,3.06969011\C,0,-2.23351
 851,-0.24400233,0.97818704\O,0,-3.28055753,0.37845097,1.03390772\N,0,-
 1.80028089,-0.8717422,-0.1463058\H,0,-0.86873727,-1.25332097,-0.144399
 63\C,0,-2.47826303,-0.73306099,-1.41840567\H,0,-3.52176476,-0.50262299

 Normal termination of Gaussian 16 at Wed Apr  9 19:26:49 2025.
