 Gaussian 16, Revision C.01,

 ----------------------------------------------------------------------
 #t hf aug-cc-pvdz symm=none int=(grid=ultrafine) guess=(read,tcheck) s
 table=(opt,rrhf)
 ----------------------------------------------------------------------
 -----
 title
 -----
 Symbolic Z-matrix:
 Charge =  0 Multiplicity = 1

 SCF Done:  E(RHF) =  -989.349980009     A.U. after   14 cycles
 Normal termination of Gaussian 16 at Wed Apr  9 19:27:12 2025.
 Gaussian 16:  ES64L-G16RevC.01  3-Jul-2019

 ----------------------------------------------------------------------
 #t hf aug-cc-pvdz iop(5/13=1,5/36=2,99/5=2) pseudo=read geom=check gue
 ss=(read,tcheck) scf=(maxcycle=1)
 ----------------------------------------------------------------------
 -----
 title
 -----
 Structure from the checkpoint file:  "HB300SPXx10_1141_4.19_0.80_methanol_dimethyldisulfide_dimer_mol1.chk"
 Charge =  0 Multiplicity = 1

                         Standard orientation:
 ---------------------------------------------------------------------
 Center     Atomic      Atomic             Coordinates (Angstroms)
 Number     Number       Type             X           Y           Z
 ---------------------------------------------------------------------
      1          8           0        2.466265    0.082416   -0.138692
      2          1           0        1.659341    0.317726   -0.612466
      3          6           0        2.367809   -1.276938    0.256851
      4          1           0        3.269193   -1.514978    0.817475
      5          1           0        1.501541   -1.455189    0.900407
      6          1           0        2.307340   -1.950715   -0.602615
      7          1           0       -3.159957   -1.505236    0.570717
      8          1           0       -3.182982   -0.234421   -0.671362
      9          1           0       -2.853504    0.178828    1.033064
     10          1           0        0.917304    1.275598    1.388652
     11          1           0       -0.735586    1.964203    1.411329
     12          1           0        0.556015    2.766915    0.496613
     13          6           0       -2.715515   -0.563377    0.251876
     14         16           0       -0.948361   -0.906337   -0.017684
     15         16           0       -0.231885    0.888348   -0.706401
     16          6           0        0.160226    1.804608    0.818454
 ---------------------------------------------------------------------

 SCF Done:  E(RHF) =  -989.685825736     A.U. after    2 cycles

 The electronic state is 1-A.
 Alpha  occ. eigenvalues --  -93.97995 -93.97766 -20.51458 -11.27798 -11.27242
 Alpha  occ. eigenvalues --  -11.26239  -8.26093  -8.25792  -6.23884  -6.23670
 Alpha  occ. eigenvalues --   -6.23593  -6.23496  -6.23386  -6.23154  -1.42194
 Alpha  occ. eigenvalues --   -1.13144  -1.03632  -0.92944  -0.91252  -0.82127
 Alpha  occ. eigenvalues --   -0.68592  -0.62702  -0.61952  -0.61443  -0.59498
 Alpha  occ. eigenvalues --   -0.59200  -0.57474  -0.55051  -0.51040  -0.49057
 Alpha  occ. eigenvalues --   -0.45930  -0.42098  -0.37661  -0.36561
 Alpha virt. eigenvalues --    0.03124   0.03802   0.04340   0.04871   0.05844
 Alpha virt. eigenvalues --    0.06258   0.06832   0.07999   0.08142   0.09108
 Alpha virt. eigenvalues --    0.10138   0.11347   0.13125   0.13445   0.14033

 Mulliken charges:
               1
     1  O   -1.203710
     2  H    0.905008
     3  C    0.475186
     4  H   -0.009287
     5  H    0.108666
     6  H    0.060231
     7  H    0.166427
     8  H    0.231304
     9  H    0.175523
    10  H    0.122456
    11  H    0.144993
    12  H    0.177790
    13  C   -0.803900
    14  S    0.273644
    15  S   -0.318040
    16  C   -0.506291
 Sum of Mulliken charges =  -0.00000

 Dipole moment (field-independent basis, Debye):
    X=             -3.2239    Y=              0.3107    Z=              1.4139  Tot=              3.5340

 Test job not archived.
 1\1\GINC-SE229\SP\RHF\Aug-CC-pVDZ\C3H10O1S2\OHZDE\09-Apr-2025\0\\#t hf
  aug-cc-pvdz iop(5/13=1,5/36=2,99/5=2) pseudo=read geom=check guess=(r
 ead,tcheck) scf=(maxcycle=1)\\title\\0,1\O,0,-0.42925951,1.22968046,-2
 .50380826\H,0,-0.36156068,1.36890772,-1.5514469\C,0,-1.37991091,0.2017
 0921,-2.7351714\H,0,-1.41855104,0.0350798,-3.80950666\H,0,-1.09677682,
 -0.73598734,-2.24842974\H,0,-2.37984798,0.48334645,-2.39294418\H,0,-0.
 70128705,-2.46101318,2.07691861\H,0,-0.23585442,-0.89023269,2.7656012\
 H,0,0.93098107,-1.8286326,1.79487935\H,0,1.55873347,0.03475558,-1.6230

 Normal termination of Gaussian 16 at Wed Apr  9 19:27:18 2025.
