 Gaussian 16, Revision C.01,

 ----------------------------------------------------------------------
 #t hf aug-cc-pvdz symm=none int=(grid=ultrafine) guess=(read,tcheck) s
 table=(opt,rrhf)
 ----------------------------------------------------------------------
 -----
 title
 -----
 Symbolic Z-matrix:
 Charge =  0 Multiplicity = 1

 SCF Done:  E(RHF) =  -1166.70023176     A.U. after   13 cycles
 Normal termination of Gaussian 16 at Wed Apr  9 19:32:16 2025.
 Gaussian 16:  ES64L-G16RevC.01  3-Jul-2019

 ----------------------------------------------------------------------
 #t hf aug-cc-pvdz iop(5/13=1,5/36=2,99/5=2) pseudo=read geom=check gue
 ss=(read,tcheck) scf=(maxcycle=1)
 ----------------------------------------------------------------------
 -----
 title
 -----
 Structure from the checkpoint file:  "HB300SPXx10_1400_5.02_2.00_dimethylsulfone_phosphineF2_dimer_mol1.chk"
 Charge =  0 Multiplicity = 1

                         Standard orientation:
 ---------------------------------------------------------------------
 Center     Atomic      Atomic             Coordinates (Angstroms)
 Number     Number       Type             X           Y           Z
 ---------------------------------------------------------------------
      1          1           0        2.957860    0.649609    2.098503
      2          1           0        1.934911   -0.810203    2.059699
      3          1           0        1.229722    0.769676    1.621084
      4          1           0        1.882921    1.992441   -0.734944
      5          1           0        3.081396    1.264180   -1.839966
      6          1           0        3.622991    1.937771   -0.281550
      7          8           0        3.834289   -0.877309   -0.097586
      8         16           0        2.574443   -0.181489   -0.088756
      9          8           0        1.430640   -0.786805   -0.738756
     10          6           0        2.126167    0.157555    1.602895
     11          6           0        2.812159    1.434890   -0.800531
     12         15           0       -3.579938   -0.504818    0.042076
     13          9           0       -5.030838    0.111784   -0.259430
     14          9           0       -2.833217    0.887511    0.377452
     15          1           0       -3.174722   -0.562780   -1.319514
 ---------------------------------------------------------------------

 SCF Done:  E(RHF) =  -1167.22492653     A.U. after    2 cycles

 The electronic state is 1-A.
 Alpha  occ. eigenvalues --  -94.18932 -84.41774 -26.48499 -26.48408 -20.53143
 Alpha  occ. eigenvalues --  -20.52994 -11.28973 -11.28940  -8.44389  -6.87416
 Alpha  occ. eigenvalues --   -6.42505  -6.42272  -6.42207  -4.40134  -4.39505
 Alpha  occ. eigenvalues --   -4.38497  -1.62407  -1.57872  -1.55793  -1.43482
 Alpha  occ. eigenvalues --   -1.09800  -1.02163  -0.88707  -0.83462  -0.71166
 Alpha  occ. eigenvalues --   -0.71102  -0.70095  -0.69415  -0.68701  -0.67759
 Alpha  occ. eigenvalues --   -0.65086  -0.62625  -0.62480  -0.62153  -0.60387
 Alpha  occ. eigenvalues --   -0.59136  -0.58319  -0.49272  -0.48809  -0.45655
 Alpha  occ. eigenvalues --   -0.44108  -0.39210
 Alpha virt. eigenvalues --    0.02793   0.03918   0.04374   0.05148   0.05555
 Alpha virt. eigenvalues --    0.06624   0.06894   0.07701   0.07882   0.09952
 Alpha virt. eigenvalues --    0.10252   0.12489   0.13819   0.14059   0.14931

 Mulliken charges:
               1
     1  H    0.218219
     2  H    0.256661
     3  H    0.226509
     4  H    0.233683
     5  H    0.249443
     6  H    0.233250
     7  O   -1.512415
     8  S    2.985362
     9  O   -1.545533
    10  C   -0.680912
    11  C   -0.668174
    12  P    1.440903
    13  F   -0.752774
    14  F   -0.768369
    15  H    0.084145
 Sum of Mulliken charges =  -0.00000

 Dipole moment (field-independent basis, Debye):
    X=              0.2983    Y=              3.1468    Z=              1.6587  Tot=              3.5697

 Test job not archived.
 1\1\GINC-SE048\SP\RHF\Aug-CC-pVDZ\C2H7F2O2P1S1\OHZDE\09-Apr-2025\0\\#t
  hf aug-cc-pvdz iop(5/13=1,5/36=2,99/5=2) pseudo=read geom=check guess
 =(read,tcheck) scf=(maxcycle=1)\\title\\0,1\H,0,1.82037896,-1.1252997,
 2.45423408\H,0,2.45327614,-0.04590354,1.18406648\H,0,1.26048817,-1.302
 78481,0.75605091\H,0,-1.35656486,-1.06874241,1.510339\H,0,-1.8999986,0
 .31018714,2.5058364\H,0,-0.84910966,-0.93302114,3.2309401\O,0,0.704774
 22,1.412934,2.93921594\S,0,0.30796869,0.58975017,1.82729483\O,0,-0.016
 49706,1.22000253,0.56448154\C,0,1.58998555,-0.61149627,1.52558836\C,0,

 Normal termination of Gaussian 16 at Wed Apr  9 19:32:21 2025.
