 Gaussian 16, Revision C.01,

 ----------------------------------------------------------------------
 #t hf aug-cc-pvdz symm=none int=(grid=ultrafine) guess=(read,tcheck) s
 table=(opt,rrhf)
 ----------------------------------------------------------------------
 -----
 title
 -----
 Symbolic Z-matrix:
 Charge =  0 Multiplicity = 1

 SCF Done:  E(RHF) =  -936.849923604     A.U. after   12 cycles
 Normal termination of Gaussian 16 at Wed Apr  9 19:29:47 2025.
 Gaussian 16:  ES64L-G16RevC.01  3-Jul-2019

 ----------------------------------------------------------------------
 #t hf aug-cc-pvdz iop(5/13=1,5/36=2,99/5=2) pseudo=read geom=check gue
 ss=(read,tcheck) scf=(maxcycle=1)
 ----------------------------------------------------------------------
 -----
 title
 -----
 Structure from the checkpoint file:  "HB300SPXx10_1322_4.37_0.85_hydrogenchloride_dimethylsulfide_dimer_mol1.chk"
 Charge =  0 Multiplicity = 1

                         Standard orientation:
 ---------------------------------------------------------------------
 Center     Atomic      Atomic             Coordinates (Angstroms)
 Number     Number       Type             X           Y           Z
 ---------------------------------------------------------------------
      1          1           0       -0.839650   -0.000003   -0.450314
      2         17           0       -2.067821   -0.000002    0.044907
      3          1           0        0.326158   -1.354202    1.235341
      4          1           0        2.094185   -1.365703    0.989337
      5          1           0        1.037447   -2.299390   -0.084478
      6          1           0        1.037436    2.299393   -0.084479
      7          1           0        2.094175    1.365710    0.989340
      8          1           0        0.326146    1.354203    1.235338
      9          6           0        1.124652   -1.385385    0.497055
     10         16           0        0.973830    0.000001   -0.659885
     11          6           0        1.124644    1.385389    0.497054
 ---------------------------------------------------------------------

 SCF Done:  E(RHF) =  -937.082671926     A.U. after    2 cycles

 The electronic state is 1-A.
 Alpha  occ. eigenvalues -- -105.52876 -93.97129 -11.28053 -11.28024 -10.57832
 Alpha  occ. eigenvalues --   -8.25372  -7.74780  -7.74464  -7.74462  -6.23167
 Alpha  occ. eigenvalues --   -6.23014  -6.22864  -1.12051  -1.02708  -0.98040
 Alpha  occ. eigenvalues --   -0.85562  -0.65701  -0.63177  -0.60775  -0.59413
 Alpha  occ. eigenvalues --   -0.58541  -0.52856  -0.47003  -0.44508  -0.44505
 Alpha  occ. eigenvalues --   -0.37049
 Alpha virt. eigenvalues --    0.03160   0.03667   0.04706   0.05445   0.06821
 Alpha virt. eigenvalues --    0.07708   0.07996   0.09603   0.12312   0.12388
 Alpha virt. eigenvalues --    0.14711   0.15154   0.15309   0.16408   0.16587

 Mulliken charges:
               1
     1  H    0.634265
     2  Cl  -0.314586
     3  H    0.119735
     4  H    0.172230
     5  H    0.146789
     6  H    0.146789
     7  H    0.172230
     8  H    0.119736
     9  C   -0.507402
    10  S   -0.182384
    11  C   -0.507403
 Sum of Mulliken charges =  -0.00000

 Dipole moment (field-independent basis, Debye):
    X=              3.4346    Y=              0.0000    Z=              1.1673  Tot=              3.6275

 Test job not archived.
 1\1\GINC-SE104\SP\RHF\Aug-CC-pVDZ\C2H7Cl1S1\OHZDE\09-Apr-2025\0\\#t hf
  aug-cc-pvdz iop(5/13=1,5/36=2,99/5=2) pseudo=read geom=check guess=(r
 ead,tcheck) scf=(maxcycle=1)\\title\\0,1\H,0,-0.09169332,-0.01707414,-
 1.03147385\Cl,0,0.64323048,-0.44620369,-2.04605842\H,0,1.66603013,0.71
 530723,0.52043648\H,0,1.01406676,1.15176287,2.12387695\H,0,0.77536044,
 2.23193438,0.73903253\H,0,-1.27732118,-1.87568881,0.98950226\H,0,-0.20
 510395,-1.28793199,2.27263941\H,0,0.45712433,-1.70383436,0.66794268\C,
 0,0.84469381,1.19297906,1.05040738\S,0,-0.72897355,0.4025187,0.6269728

 Normal termination of Gaussian 16 at Wed Apr  9 19:29:50 2025.
