 Gaussian 16, Revision C.01,

 ----------------------------------------------------------------------
 #t hf aug-cc-pvdz symm=none int=(grid=ultrafine) guess=(read,tcheck) s
 table=(opt,rrhf)
 ----------------------------------------------------------------------
 -----
 title
 -----
 Symbolic Z-matrix:
 Charge =  0 Multiplicity = 1

 SCF Done:  E(RHF) =  -974.725459543     A.U. after   13 cycles
 Normal termination of Gaussian 16 at Wed Apr  9 19:30:51 2025.
 Gaussian 16:  ES64L-G16RevC.01  3-Jul-2019

 ----------------------------------------------------------------------
 #t hf aug-cc-pvdz iop(5/13=1,5/36=2,99/5=2) pseudo=read geom=check gue
 ss=(read,tcheck) scf=(maxcycle=1)
 ----------------------------------------------------------------------
 -----
 title
 -----
 Structure from the checkpoint file:  "HB300SPXx10_1376_4.42_1.05_hydrogenchloride_thioacetone_dimer_mol1.chk"
 Charge =  0 Multiplicity = 1

                         Standard orientation:
 ---------------------------------------------------------------------
 Center     Atomic      Atomic             Coordinates (Angstroms)
 Number     Number       Type             X           Y           Z
 ---------------------------------------------------------------------
      1          1           0        1.702544   -0.298431    0.000000
      2         17           0        2.598133   -1.265281    0.000000
      3          1           0       -0.349284   -1.515388    0.000000
      4          1           0       -1.893816   -1.465128    0.874054
      5          1           0       -1.893816   -1.465128   -0.874054
      6          1           0       -2.659372    2.111560    0.000000
      7          1           0       -3.276388    0.692189   -0.874659
      8          6           0       -1.349616   -1.098582    0.000000
      9          6           0       -1.356584    0.397028    0.000000
     10         16           0        0.000000    1.299796    0.000000
     11          6           0       -2.714091    1.028418    0.000000
     12          1           0       -3.276388    0.692189    0.874659
 ---------------------------------------------------------------------

 SCF Done:  E(RHF) =  -974.990849299     A.U. after    2 cycles

 The electronic state is 1-A'.
 Alpha  occ. eigenvalues -- -105.55265 -93.94225 -11.34922 -11.26504 -11.26348
 Alpha  occ. eigenvalues --  -10.60031  -8.22547  -7.76997  -7.76652  -7.76643
 Alpha  occ. eigenvalues --   -6.20358  -6.20158  -6.19965  -1.15042  -1.04149
 Alpha  occ. eigenvalues --   -0.99206  -0.98531  -0.74894  -0.64003  -0.63678
 Alpha  occ. eigenvalues --   -0.63547  -0.60041  -0.57856  -0.55491  -0.52028
 Alpha  occ. eigenvalues --   -0.45918  -0.45894  -0.41043  -0.36437
 Alpha virt. eigenvalues --    0.02732   0.03071   0.04141   0.05534   0.05627
 Alpha virt. eigenvalues --    0.07006   0.07217   0.08065   0.09474   0.10894
 Alpha virt. eigenvalues --    0.13221   0.13541   0.14115   0.15334   0.15708

 Mulliken charges:
               1
     1  H    0.292870
     2  Cl  -0.233981
     3  H    0.043785
     4  H    0.286588
     5  H    0.286588
     6  H    0.173385
     7  H    0.254900
     8  C   -0.476742
     9  C   -0.476433
    10  S    0.075388
    11  C   -0.481249
    12  H    0.254900
 Sum of Mulliken charges =  -0.00000

 Dipole moment (field-independent basis, Debye):
    X=             -4.8393    Y=             -0.3296    Z=             -0.0000  Tot=              4.8505

 Test job not archived.
 1\1\GINC-SE098\SP\RHF\Aug-CC-pVDZ\C3H7Cl1S1\OHZDE\09-Apr-2025\0\\#t hf
  aug-cc-pvdz iop(5/13=1,5/36=2,99/5=2) pseudo=read geom=check guess=(r
 ead,tcheck) scf=(maxcycle=1)\\title\\0,1\H,0,-0.37830043,1.49279945,0.
 \Cl,0,0.15229845,2.69917624,0.\H,0,1.55466659,0.09472088,0.\H,0,2.1232
 0045,-1.3422454,0.87405369\H,0,2.12320045,-1.3422454,-0.87405369\H,0,-
 0.85343059,-3.46790818,0.\H,0,0.69425291,-3.46912799,-0.87465894\C,0,1
 .57036555,-0.98885832,0.\C,0,0.201054,-1.59042576,0.\S,0,-1.1670028,-0
 .70513923,0.\C,0,0.16202885,-3.0870739,0.\H,0,0.69425291,-3.46912799,0

 Normal termination of Gaussian 16 at Wed Apr  9 19:30:55 2025.
