 Gaussian 16, Revision C.01,

 ----------------------------------------------------------------------
 #t hf aug-cc-pvdz symm=none int=(grid=ultrafine) guess=(read,tcheck) s
 table=(opt,rrhf)
 ----------------------------------------------------------------------
 -----
 title
 -----
 Symbolic Z-matrix:
 Charge =  0 Multiplicity = 1

 SCF Done:  E(RHF) =  -576.786907929     A.U. after   12 cycles
 Normal termination of Gaussian 16 at Wed Apr  9 19:31:48 2025.
 Gaussian 16:  ES64L-G16RevC.01  3-Jul-2019

 ----------------------------------------------------------------------
 #t hf aug-cc-pvdz iop(5/13=1,5/36=2,99/5=2) pseudo=read geom=check gue
 ss=(read,tcheck) scf=(maxcycle=1)
 ----------------------------------------------------------------------
 -----
 title
 -----
 Structure from the checkpoint file:  "HB300SPXx10_1433_5.06_0.90_methanethiol_methylfluoride_dimer_mol1.chk"
 Charge =  0 Multiplicity = 1

                         Standard orientation:
 ---------------------------------------------------------------------
 Center     Atomic      Atomic             Coordinates (Angstroms)
 Number     Number       Type             X           Y           Z
 ---------------------------------------------------------------------
      1          1           0        1.747380    1.714011   -0.527269
      2          1           0        1.705483    1.341956    1.201189
      3          1           0        0.191483    1.399896    0.279506
      4          1           0        0.717958   -0.715768   -1.176497
      5          6           0        1.242871    1.134102    0.239950
      6         16           0        1.445602   -0.654265   -0.051639
      7          1           0       -1.201897   -0.835700    0.869485
      8          1           0       -2.674022    0.131460    1.195808
      9          1           0       -2.724500   -1.196889    0.003223
     10          6           0       -2.108946   -0.413637    0.441832
     11          9           0       -1.743896    0.478499   -0.567767
 ---------------------------------------------------------------------

 SCF Done:  E(RHF) =  -577.031550230     A.U. after    2 cycles

 The electronic state is 1-A.
 Alpha  occ. eigenvalues --  -93.94406 -26.44783 -11.31645 -11.26095  -8.22510
 Alpha  occ. eigenvalues --   -6.20369  -6.20223  -6.19996  -1.56660  -1.05661
 Alpha  occ. eigenvalues --   -0.95145  -0.88063  -0.68986  -0.68540  -0.66346
 Alpha  occ. eigenvalues --   -0.60993  -0.59002  -0.53222  -0.52736  -0.52606
 Alpha  occ. eigenvalues --   -0.46337  -0.36130
 Alpha virt. eigenvalues --    0.03619   0.03948   0.04688   0.05452   0.06787
 Alpha virt. eigenvalues --    0.07782   0.08434   0.11055   0.11856   0.13410
 Alpha virt. eigenvalues --    0.14609   0.15050   0.15514   0.16391   0.17466

 Mulliken charges:
               1
     1  H    0.124066
     2  H    0.182984
     3  H    0.136163
     4  H    0.381109
     5  C   -0.646578
     6  S   -0.199491
     7  H    0.134334
     8  H    0.137922
     9  H    0.087246
    10  C    0.368067
    11  F   -0.705821
 Sum of Mulliken charges =  -0.00000

 Dipole moment (field-independent basis, Debye):
    X=             -1.2682    Y=              0.3433    Z=              0.8693  Tot=              1.5754

 Test job not archived.
 1\1\GINC-SE114\SP\RHF\Aug-CC-pVDZ\C2H7F1S1\OHZDE\09-Apr-2025\0\\#t hf
 aug-cc-pvdz iop(5/13=1,5/36=2,99/5=2) pseudo=read geom=check guess=(re
 ad,tcheck) scf=(maxcycle=1)\\title\\0,1\H,0,2.08229041,-1.4254109,-0.5
 8197167\H,0,2.56243491,-0.07269824,0.45116733\H,0,1.30281242,0.1638302
 2,-0.77457926\H,0,-0.45614858,-1.39442223,0.38777169\C,0,1.72720839,-0
 .53887394,-0.06484534\S,0,0.50833702,-0.97408013,1.21941614\H,0,-0.776
 70911,1.39517744,0.42826965\H,0,-0.84936634,2.61671976,-0.88000889\H,0
 ,-2.30098221,1.66111329,-0.46898064\C,0,-1.21451626,1.65128941,-0.5342

 Normal termination of Gaussian 16 at Wed Apr  9 19:31:51 2025.
