 Gaussian 16, Revision C.01,

 ----------------------------------------------------------------------
 #t hf aug-cc-pvdz symm=none int=(grid=ultrafine) guess=(read,tcheck) s
 table=(opt,rrhf)
 ----------------------------------------------------------------------
 -----
 title
 -----
 Symbolic Z-matrix:
 Charge =  0 Multiplicity = 1

 SCF Done:  E(RHF) =  -576.789436588     A.U. after   12 cycles
 Normal termination of Gaussian 16 at Wed Apr  9 19:33:25 2025.
 Gaussian 16:  ES64L-G16RevC.01  3-Jul-2019

 ----------------------------------------------------------------------
 #t hf aug-cc-pvdz iop(5/13=1,5/36=2,99/5=2) pseudo=read geom=check gue
 ss=(read,tcheck) scf=(maxcycle=1)
 ----------------------------------------------------------------------
 -----
 title
 -----
 Structure from the checkpoint file:  "HB300SPXx10_1437_5.06_1.10_methanethiol_methylfluoride_dimer_mol1.chk"
 Charge =  0 Multiplicity = 1

                         Standard orientation:
 ---------------------------------------------------------------------
 Center     Atomic      Atomic             Coordinates (Angstroms)
 Number     Number       Type             X           Y           Z
 ---------------------------------------------------------------------
      1          1           0        2.009352    1.668311   -0.559580
      2          1           0        2.036134    1.300508    1.170088
      3          1           0        0.481846    1.456685    0.330537
      4          1           0        0.790565   -0.689425   -1.143253
      5          6           0        1.510057    1.122865    0.235808
      6         16           0        1.579982   -0.675039   -0.059202
      7          1           0       -1.472445   -0.859367    0.838813
      8          1           0       -2.858840    0.201888    1.239664
      9          1           0       -3.059621   -1.120842    0.056706
     10          6           0       -2.371729   -0.379222    0.458668
     11          9           0       -2.004075    0.486779   -0.572511
 ---------------------------------------------------------------------

 SCF Done:  E(RHF) =  -577.034337677     A.U. after    2 cycles

 The electronic state is 1-A.
 Alpha  occ. eigenvalues --  -93.94575 -26.44626 -11.31800 -11.26447  -8.22670
 Alpha  occ. eigenvalues --   -6.20530  -6.20384  -6.20153  -1.56400  -1.05809
 Alpha  occ. eigenvalues --   -0.95121  -0.88233  -0.68486  -0.68392  -0.66140
 Alpha  occ. eigenvalues --   -0.61315  -0.59513  -0.53329  -0.52624  -0.52588
 Alpha  occ. eigenvalues --   -0.46502  -0.36247
 Alpha virt. eigenvalues --    0.03603   0.03927   0.04690   0.05497   0.06627
 Alpha virt. eigenvalues --    0.07683   0.08290   0.11135   0.11905   0.12931
 Alpha virt. eigenvalues --    0.14350   0.14842   0.15460   0.16338   0.17393

 Mulliken charges:
               1
     1  H    0.143029
     2  H    0.172638
     3  H    0.103565
     4  H    0.362809
     5  C   -0.649819
     6  S   -0.145503
     7  H    0.104275
     8  H    0.132104
     9  H    0.095085
    10  C    0.361446
    11  F   -0.679628
 Sum of Mulliken charges =  -0.00000

 Dipole moment (field-independent basis, Debye):
    X=             -1.1262    Y=              0.4207    Z=              0.9638  Tot=              1.5408

 Test job not archived.
 1\1\GINC-SE016\SP\RHF\Aug-CC-pVDZ\C2H7F1S1\OHZDE\09-Apr-2025\0\\#t hf
 aug-cc-pvdz iop(5/13=1,5/36=2,99/5=2) pseudo=read geom=check guess=(re
 ad,tcheck) scf=(maxcycle=1)\\title\\0,1\H,0,2.08229041,-1.4254109,-0.5
 8197167\H,0,2.56243491,-0.07269824,0.45116733\H,0,1.30281242,0.1638302
 2,-0.77457926\H,0,-0.45614858,-1.39442223,0.38777169\C,0,1.72720839,-0
 .53887394,-0.06484534\S,0,0.50833702,-0.97408013,1.21941614\H,0,-1.252
 13386,1.50946118,0.27576354\H,0,-1.32479108,2.7310035,-1.032515\H,0,-2
 .77640696,1.77539703,-0.62148675\C,0,-1.68994101,1.76557315,-0.6867820

 Normal termination of Gaussian 16 at Wed Apr  9 19:33:28 2025.
