 Gaussian 16, Revision C.01,

 ----------------------------------------------------------------------
 #t hf aug-cc-pvdz symm=none int=(grid=ultrafine) guess=(read,tcheck) s
 table=(opt,rrhf)
 ----------------------------------------------------------------------
 -----
 title
 -----
 Symbolic Z-matrix:
 Charge =  0 Multiplicity = 1

 SCF Done:  E(RHF) =  -437.693219686     A.U. after   11 cycles
 Normal termination of Gaussian 16 at Wed Apr  9 04:10:24 2025.
 Gaussian 16:  ES64L-G16RevC.01  3-Jul-2019

 ----------------------------------------------------------------------
 #t hf aug-cc-pvdz iop(5/13=1,5/36=2,99/5=2) pseudo=read geom=check gue
 ss=(read,tcheck) scf=(maxcycle=1)
 ----------------------------------------------------------------------
 -----
 title
 -----
 Structure from the checkpoint file:  "HB300SPXx10_11_1.02_0.80_phosphine_methylamine_dimer_mol1.chk"
 Charge =  0 Multiplicity = 1

                         Standard orientation:
 ---------------------------------------------------------------------
 Center     Atomic      Atomic             Coordinates (Angstroms)
 Number     Number       Type             X           Y           Z
 ---------------------------------------------------------------------
      1         15           0        1.637362    0.030237   -0.109777
      2          1           0        0.504338   -0.784358    0.133184
      3          1           0        2.562375   -0.909067    0.411174
      4          1           0        1.519628    0.728880    1.118205
      5          7           0       -1.615915   -0.729009    0.033993
      6          1           0       -2.196555   -1.027516    0.805872
      7          1           0       -2.031046   -1.100486   -0.809710
      8          6           0       -1.528845    0.729907   -0.023613
      9          1           0       -0.884768    1.018555   -0.853450
     10          1           0       -2.487516    1.246603   -0.144667
     11          1           0       -1.062412    1.097450    0.889775
 ---------------------------------------------------------------------

 SCF Done:  E(RHF) =  -437.851363492     A.U. after    2 cycles

 The electronic state is 1-A.
 Alpha  occ. eigenvalues --  -84.24980 -15.49001 -11.25734  -6.72219  -4.24724
 Alpha  occ. eigenvalues --   -4.24508  -4.23896  -1.18122  -0.91643  -0.84991
 Alpha  occ. eigenvalues --   -0.70340  -0.64223  -0.59451  -0.54130  -0.49401
 Alpha  occ. eigenvalues --   -0.48319  -0.42593  -0.34185
 Alpha virt. eigenvalues --    0.03351   0.04857   0.05108   0.05524   0.06643
 Alpha virt. eigenvalues --    0.07721   0.08749   0.10231   0.10589   0.11197
 Alpha virt. eigenvalues --    0.12229   0.14822   0.16534   0.17149   0.18197

 Mulliken charges:
               1
     1  P   -1.182149
     2  H    0.418740
     3  H    0.391715
     4  H    0.351696
     5  N   -0.128582
     6  H    0.171707
     7  H    0.167885
     8  C   -0.447823
     9  H    0.140985
    10  H    0.038876
    11  H    0.076949
 Sum of Mulliken charges =  -0.00000

 Dipole moment (field-independent basis, Debye):
    X=             -2.1408    Y=              0.0603    Z=              0.1698  Tot=              2.1483

 Test job not archived.
 1\1\GINC-SE115\SP\RHF\Aug-CC-pVDZ\C1H8N1P1\OHZDE\09-Apr-2025\0\\#t hf
 aug-cc-pvdz iop(5/13=1,5/36=2,99/5=2) pseudo=read geom=check guess=(re
 ad,tcheck) scf=(maxcycle=1)\\title\\0,1\P,0,1.60554835,-0.39061782,-0.
 727406\H,0,0.88263451,-0.28817357,0.48636549\H,0,2.87161411,-0.472756,
 -0.09521777\H,0,1.68852005,1.01288402,-0.9096172\N,0,-1.08716442,0.040
 54105,1.2076234\H,0,-1.28766287,0.7213298,1.92760388\H,0,-1.62451501,-
 0.78769957,1.42542453\C,0,-1.43544105,0.55788763,-0.11539972\H,0,-1.19
 284305,-0.1906673,-0.86878853\H,0,-2.48790995,0.83540806,-0.24177179\H

 Normal termination of Gaussian 16 at Wed Apr  9 04:10:26 2025.
