 Gaussian 16, Revision C.01,

 ----------------------------------------------------------------------
 #t hf aug-cc-pvdz symm=none int=(grid=ultrafine) guess=(read,tcheck) s
 table=(opt,rrhf)
 ----------------------------------------------------------------------
 -----
 title
 -----
 Symbolic Z-matrix:
 Charge =  0 Multiplicity = 1

 SCF Done:  E(RHF) =  -513.773699522     A.U. after   12 cycles
 Normal termination of Gaussian 16 at Wed Apr  9 19:27:42 2025.
 Gaussian 16:  ES64L-G16RevC.01  3-Jul-2019

 ----------------------------------------------------------------------
 #t hf aug-cc-pvdz iop(5/13=1,5/36=2,99/5=2) pseudo=read geom=check gue
 ss=(read,tcheck) scf=(maxcycle=1)
 ----------------------------------------------------------------------
 -----
 title
 -----
 Structure from the checkpoint file:  "HB300SPXx10_1164_4.21_0.95_water_methanethiol_dimer_mol1.chk"
 Charge =  0 Multiplicity = 1

                         Standard orientation:
 ---------------------------------------------------------------------
 Center     Atomic      Atomic             Coordinates (Angstroms)
 Number     Number       Type             X           Y           Z
 ---------------------------------------------------------------------
      1          8           0       -2.253047    0.110653    0.054368
      2          1           0       -1.436319   -0.388763   -0.089113
      3          1           0       -2.953846   -0.438333   -0.303452
      4          1           0       -0.022829    1.529174    0.494011
      5          1           0        0.884136    1.506874   -1.022220
      6          1           0        1.766090    1.510649    0.511683
      7          1           0        0.847234   -0.901049    1.239175
      8          6           0        0.872607    1.157436    0.006475
      9         16           0        0.856517   -0.665525   -0.081492
 ---------------------------------------------------------------------

 SCF Done:  E(RHF) =  -513.960614543     A.U. after    2 cycles

 The electronic state is 1-A.
 Alpha  occ. eigenvalues --  -93.96059 -20.53865 -11.27231  -8.24166  -6.22018
 Alpha  occ. eigenvalues --   -6.21871  -6.21664  -1.42126  -1.07095  -0.89367
 Alpha  occ. eigenvalues --   -0.70026  -0.62312  -0.60217  -0.56313  -0.54382
 Alpha  occ. eigenvalues --   -0.48230  -0.47681  -0.37934
 Alpha virt. eigenvalues --    0.03710   0.04325   0.04642   0.05894   0.07116
 Alpha virt. eigenvalues --    0.09848   0.11097   0.11734   0.14256   0.14831
 Alpha virt. eigenvalues --    0.15812   0.16791   0.18043   0.21280   0.21511

 Mulliken charges:
               1
     1  O   -0.884128
     2  H    0.650279
     3  H    0.364101
     4  H    0.108194
     5  H    0.201934
     6  H    0.120076
     7  H    0.354672
     8  C   -0.602327
     9  S   -0.312800
 Sum of Mulliken charges =   0.00000

 Dipole moment (field-independent basis, Debye):
    X=              0.6591    Y=             -0.1283    Z=              0.1262  Tot=              0.6832

 Test job not archived.
 1\1\GINC-SE028\SP\RHF\Aug-CC-pVDZ\C1H6O1S1\OHZDE\09-Apr-2025\0\\#t hf
 aug-cc-pvdz iop(5/13=1,5/36=2,99/5=2) pseudo=read geom=check guess=(re
 ad,tcheck) scf=(maxcycle=1)\\title\\0,1\O,0,-0.58582535,-1.65985485,-1
 .57348405\H,0,-0.07487288,-1.34797585,-0.81275631\H,0,-0.15829821,-2.4
 72369,-1.85201796\H,0,-1.189239,0.83712284,-0.81167621\H,0,0.31048816,
 1.76451051,-0.92484677\H,0,-0.85175481,2.15432649,0.35106413\H,0,-0.55
 206908,-0.21052178,1.57887151\C,0,-0.42339105,1.35025451,-0.23908724\S
 ,0,0.48689518,0.18000064,0.82536961\\Version=ES64L-G16RevC.01\State=1-

 Normal termination of Gaussian 16 at Wed Apr  9 19:27:44 2025.
