 Gaussian 16, Revision C.01,

 ----------------------------------------------------------------------
 #t hf aug-cc-pvdz symm=none int=(grid=ultrafine) guess=(read,tcheck) s
 table=(opt,rrhf)
 ----------------------------------------------------------------------
 -----
 title
 -----
 Symbolic Z-matrix:
 Charge =  0 Multiplicity = 1

 SCF Done:  E(RHF) =  -609.889708465     A.U. after   13 cycles
 Normal termination of Gaussian 16 at Wed Apr  9 19:24:09 2025.
 Gaussian 16:  ES64L-G16RevC.01  3-Jul-2019

 ----------------------------------------------------------------------
 #t hf aug-cc-pvdz iop(5/13=1,5/36=2,99/5=2) pseudo=read geom=check gue
 ss=(read,tcheck) scf=(maxcycle=1)
 ----------------------------------------------------------------------
 -----
 title
 -----
 Structure from the checkpoint file:  "HB300SPXx10_1056_4.09_1.05_ammonia_tetrahydrothiophene_dimer_mol1.chk"
 Charge =  0 Multiplicity = 1

                         Standard orientation:
 ---------------------------------------------------------------------
 Center     Atomic      Atomic             Coordinates (Angstroms)
 Number     Number       Type             X           Y           Z
 ---------------------------------------------------------------------
      1          7           0       -2.932083    0.434568   -0.188921
      2          1           0       -2.280287   -0.338470   -0.084487
      3          1           0       -3.600781    0.368191    0.568189
      4          1           0       -3.445862    0.281740   -1.047660
      5          1           0        1.448122   -0.187132    1.924969
      6          1           0       -0.302765   -0.005075    2.084068
      7          1           0        1.107958    2.088683    1.170511
      8          1           0       -0.255104    0.012995   -1.806834
      9          1           0       -0.408217    1.659843    0.369518
     10          1           0        1.314704   -0.786101   -1.979127
     11          1           0        1.287717    1.832935   -1.414191
     12          1           0        2.386694    0.795279   -0.507148
     13         16           0        0.280300   -1.328874    0.139198
     14          6           0        0.526158    0.008846    1.381202
     15          6           0        0.601045    1.315464    0.592589
     16          6           0        1.334508    1.001564   -0.710469
     17          6           0        0.669557   -0.243020   -1.293744
 ---------------------------------------------------------------------

 SCF Done:  E(RHF) =  -610.185435919     A.U. after    2 cycles

 The electronic state is 1-A.
 Alpha  occ. eigenvalues --  -93.92990 -15.47882 -11.25944 -11.25901 -11.23668
 Alpha  occ. eigenvalues --  -11.23219  -8.21112  -6.18916  -6.18797  -6.18573
 Alpha  occ. eigenvalues --   -1.13894  -1.13349  -0.98725  -0.98082  -0.79588
 Alpha  occ. eigenvalues --   -0.79385  -0.66812  -0.65856  -0.65320  -0.64629
 Alpha  occ. eigenvalues --   -0.60478  -0.55302  -0.51181  -0.49815  -0.48562
 Alpha  occ. eigenvalues --   -0.48408  -0.46184  -0.42894  -0.34042
 Alpha virt. eigenvalues --    0.03388   0.03797   0.03922   0.04595   0.05984
 Alpha virt. eigenvalues --    0.06269   0.06561   0.07711   0.08010   0.08723
 Alpha virt. eigenvalues --    0.09212   0.11372   0.13384   0.14626   0.14855

 Mulliken charges:
               1
     1  N   -0.070384
     2  H   -0.120188
     3  H    0.129533
     4  H    0.132889
     5  H    0.127537
     6  H    0.153757
     7  H    0.146575
     8  H    0.164023
     9  H    0.196028
    10  H    0.155888
    11  H    0.133153
    12  H    0.108842
    13  S    0.436694
    14  C   -0.566177
    15  C   -0.271254
    16  C   -0.333798
    17  C   -0.523117
 Sum of Mulliken charges =  -0.00000

 Dipole moment (field-independent basis, Debye):
    X=             -0.0814    Y=              0.8899    Z=             -0.1732  Tot=              0.9102

 Test job not archived.
 1\1\GINC-SE229\SP\RHF\Aug-CC-pVDZ\C4H11N1S1\OHZDE\09-Apr-2025\0\\#t hf
  aug-cc-pvdz iop(5/13=1,5/36=2,99/5=2) pseudo=read geom=check guess=(r
 ead,tcheck) scf=(maxcycle=1)\\title\\0,1\N,0,-1.82627315,2.2398073,0.1
 9813908\H,0,-1.3275361,1.71497926,-0.51540753\H,0,-2.80551666,2.240204
 76,-0.05849198\H,0,-1.50884454,3.19950412,0.14356214\H,0,-0.37040001,-
 2.41027766,-0.34810083\H,0,-1.67205102,-1.21465506,-0.36398629\H,0,-0.
 47471936,-1.7486462,1.97904571\H,0,1.19352568,1.3292423,0.31334308\H,0
 ,-0.8061856,-0.0668127,1.54794676\H,0,2.50257614,0.302894,-0.29124997\

 Normal termination of Gaussian 16 at Wed Apr  9 19:24:15 2025.
