 Gaussian 16, Revision C.01,

 ----------------------------------------------------------------------
 #t hf aug-cc-pvdz symm=none int=(grid=ultrafine) guess=(read,tcheck) s
 table=(opt,rrhf)
 ----------------------------------------------------------------------
 -----
 title
 -----
 Symbolic Z-matrix:
 Charge =  0 Multiplicity = 1

 SCF Done:  E(RHF) =  -1091.84865628     A.U. after   14 cycles
 Normal termination of Gaussian 16 at Wed Apr  9 19:32:17 2025.
 Gaussian 16:  ES64L-G16RevC.01  3-Jul-2019

 ----------------------------------------------------------------------
 #t hf aug-cc-pvdz iop(5/13=1,5/36=2,99/5=2) pseudo=read geom=check gue
 ss=(read,tcheck) scf=(maxcycle=1)
 ----------------------------------------------------------------------
 -----
 title
 -----
 Structure from the checkpoint file:  "HB300SPXx10_1403_5.03_0.90_dimethylsulfoxide_phosphineF2_dimer_mol1.chk"
 Charge =  0 Multiplicity = 1

                         Standard orientation:
 ---------------------------------------------------------------------
 Center     Atomic      Atomic             Coordinates (Angstroms)
 Number     Number       Type             X           Y           Z
 ---------------------------------------------------------------------
      1          1           0        1.932399    1.677557   -1.467713
      2          1           0        2.755879    1.775904    0.107393
      3          1           0        0.960679    1.810883    0.023265
      4          1           0        1.524310   -1.593296    1.681733
      5          1           0        0.787728    0.028632    1.790398
      6          6           0        1.872266    1.414320   -0.415128
      7         16           0        1.835592   -0.394801   -0.333221
      8          8           0        0.537378   -0.827961   -0.938680
      9          6           0        1.656071   -0.536954    1.463961
     10          1           0        2.565327   -0.171444    1.937234
     11         15           0       -1.688936   -0.366048   -0.096984
     12          9           0       -3.229185    0.084617    0.085948
     13          9           0       -1.039578    0.983778    0.513039
     14          1           0       -1.611944    0.023234   -1.460452
 ---------------------------------------------------------------------

 SCF Done:  E(RHF) =  -1092.29863067     A.U. after    2 cycles

 The electronic state is 1-A.
 Alpha  occ. eigenvalues --  -94.08469 -84.37852 -26.46257 -26.44094 -20.51766
 Alpha  occ. eigenvalues --  -11.28341 -11.28116  -8.35401  -6.83410  -6.33268
 Alpha  occ. eigenvalues --   -6.33109  -6.32893  -4.36171  -4.35651  -4.34557
 Alpha  occ. eigenvalues --   -1.59604  -1.54648  -1.46208  -1.10448  -0.99524
 Alpha  occ. eigenvalues --   -0.86759  -0.84568  -0.69422  -0.68613  -0.67679
 Alpha  occ. eigenvalues --   -0.65239  -0.64778  -0.64664  -0.62323  -0.60289
 Alpha  occ. eigenvalues --   -0.60087  -0.58834  -0.56680  -0.54242  -0.53165
 Alpha  occ. eigenvalues --   -0.44740  -0.39261  -0.34374
 Alpha virt. eigenvalues --    0.02752   0.03725   0.04737   0.05234   0.06604
 Alpha virt. eigenvalues --    0.06962   0.07701   0.08571   0.09631   0.11061
 Alpha virt. eigenvalues --    0.12311   0.12721   0.13275   0.14679   0.15099

 Mulliken charges:
               1
     1  H    0.188753
     2  H    0.190150
     3  H    0.203224
     4  H    0.203998
     5  H    0.197770
     6  C   -0.602826
     7  S    1.609876
     8  O   -1.433878
     9  C   -0.614314
    10  H    0.189029
    11  P    1.491701
    12  F   -0.784736
    13  F   -0.888783
    14  H    0.050035
 Sum of Mulliken charges =  -0.00000

 Dipole moment (field-independent basis, Debye):
    X=              4.7590    Y=              1.2898    Z=              1.4222  Tot=              5.1317

 Test job not archived.
 1\1\GINC-SE112\SP\RHF\Aug-CC-pVDZ\C2H7F2O1P1S1\OHZDE\09-Apr-2025\0\\#t
  hf aug-cc-pvdz iop(5/13=1,5/36=2,99/5=2) pseudo=read geom=check guess
 =(read,tcheck) scf=(maxcycle=1)\\title\\0,1\H,0,1.67395499,0.82417178,
 -3.38423362\H,0,0.49124302,-0.02078366,-4.41184902\H,0,0.89589517,-0.6
 6534236,-2.78340018\H,0,-2.718683,0.46280377,-2.2188292\H,0,-1.5421980
 9,-0.87905323,-2.20106353\C,0,0.76564588,0.22768029,-3.38836814\S,0,-0
 .5351395,1.25679703,-2.66046249\O,0,-0.17783951,1.44910918,-1.22000404
 \C,0,-1.85989706,0.022286,-2.71790313\H,0,-2.10168806,-0.18449539,-3.7

 Normal termination of Gaussian 16 at Wed Apr  9 19:32:22 2025.
