 Gaussian 16, Revision C.01,

 ----------------------------------------------------------------------
 #t hf aug-cc-pvdz symm=none int=(grid=ultrafine) guess=(read,tcheck) s
 table=(opt,rrhf)
 ----------------------------------------------------------------------
 -----
 title
 -----
 Symbolic Z-matrix:
 Charge =  0 Multiplicity = 1

 SCF Done:  E(RHF) =  -991.406528055     A.U. after   12 cycles

 1\1\GINC-SE186\Stability\RHF\Aug-CC-pVDZ\C5H12S2\OHZDE\09-Apr-2025\0\\
 #t hf aug-cc-pvdz symm=none int=(grid=ultrafine) guess=(read,tcheck) s
 table=(opt,rrhf)\\title\\0,1\H,0,2.75511322,-2.75302781,-0.03281769\H,
 0,2.23328443,-3.6609344,1.39160682\H,0,2.88304587,-2.02859561,1.588775
 53\H,0,0.87227038,-0.86572365,0.25189781\C,0,2.28978938,-2.67174858,0.
 94522466\S,0,0.57786237,-2.06107277,0.80693494\H,0,-0.64047421,-0.6240
 2903,-1.61614519\H,0,-0.73538744,0.84649264,-2.59550028\H,0,-2.8779807
 6,0.18053792,-1.13488111\H,0,-0.59150209,2.54933642,0.99792292\H,0,-2.

 Normal termination of Gaussian 16 at Wed Apr  9 04:11:19 2025.
 Gaussian 16:  ES64L-G16RevC.01  3-Jul-2019

 ----------------------------------------------------------------------
 #t hf aug-cc-pvdz iop(5/13=1,5/36=2,99/5=2) pseudo=read geom=check gue
 ss=(read,tcheck) scf=(maxcycle=1)
 ----------------------------------------------------------------------
 -----
 title
 -----
 Structure from the checkpoint file:  "HB300SPXx10_1203_4.25_0.90_methanethiol_tetrahydrothiophene_dimer_mol1.chk"
 Charge =  0 Multiplicity = 1

                         Standard orientation:
 ---------------------------------------------------------------------
 Center     Atomic      Atomic             Coordinates (Angstroms)
 Number     Number       Type             X           Y           Z
 ---------------------------------------------------------------------
      1          1           0        3.536919    1.092068   -0.805523
      2          1           0        4.352389   -0.292840   -0.068892
      3          1           0        3.525438    0.880997    0.962541
      4          1           0        1.096865    0.309924   -0.016560
      5          6           0        3.494310    0.369906    0.004641
      6         16           0        2.009524   -0.678828   -0.130689
      7          1           0       -0.494790   -0.063544   -1.795198
      8          1           0       -1.964312    0.902032   -1.992042
      9          1           0       -2.247489   -1.691637   -1.391789
     10          1           0       -2.144225    0.365656    1.946613
     11          1           0       -3.217231   -0.521549   -0.499034
     12          1           0       -0.421457   -0.017939    2.066831
     13          1           0       -2.108099   -1.929545    1.199813
     14          1           0       -0.556785   -1.720355    0.399104
     15         16           0       -0.894592    1.355102    0.127017
     16          6           0       -1.390294    0.299424   -1.293472
     17          6           0       -2.196726   -0.851886   -0.698504
     18          6           0       -1.509410   -1.234327    0.611335
     19          6           0       -1.263903    0.061274    1.384813
 ---------------------------------------------------------------------

 SCF Done:  E(RHF) =  -991.747991972     A.U. after    2 cycles

 The electronic state is 1-A.
 Alpha  occ. eigenvalues --  -93.93683 -93.92957 -11.26437 -11.26382 -11.25910
 Alpha  occ. eigenvalues --  -11.24187 -11.24027  -8.21828  -8.21125  -6.19623
 Alpha  occ. eigenvalues --   -6.19507  -6.19300  -6.18988  -6.18846  -6.18630
 Alpha  occ. eigenvalues --   -1.14243  -1.04905  -0.99280  -0.98876  -0.87600
 Alpha  occ. eigenvalues --   -0.80192  -0.80010  -0.67043  -0.65351  -0.61073
 Alpha  occ. eigenvalues --   -0.60735  -0.58968  -0.56344  -0.52429  -0.51714
 Alpha  occ. eigenvalues --   -0.50455  -0.49079  -0.48891  -0.45715  -0.43537
 Alpha  occ. eigenvalues --   -0.35203  -0.34144
 Alpha virt. eigenvalues --    0.03405   0.03720   0.03846   0.04159   0.05442
 Alpha virt. eigenvalues --    0.05785   0.06108   0.06577   0.07907   0.08423
 Alpha virt. eigenvalues --    0.08717   0.09642   0.12133   0.12805   0.13598

 Mulliken charges:
               1
     1  H    0.134746
     2  H    0.133971
     3  H    0.129509
     4  H    0.660830
     5  C   -0.834447
     6  S   -0.170070
     7  H    0.107443
     8  H    0.140231
     9  H    0.124982
    10  H    0.106907
    11  H    0.104813
    12  H    0.129714
    13  H    0.147481
    14  H    0.129656
    15  S    0.206018
    16  C   -0.338042
    17  C   -0.312286
    18  C   -0.200891
    19  C   -0.400564
 Sum of Mulliken charges =  -0.00000

 Dipole moment (field-independent basis, Debye):
    X=             -0.7370    Y=             -0.3430    Z=              0.0853  Tot=              0.8174

 Test job not archived.
 1\1\GINC-SE186\SP\RHF\Aug-CC-pVDZ\C5H12S2\OHZDE\09-Apr-2025\0\\#t hf a
 ug-cc-pvdz iop(5/13=1,5/36=2,99/5=2) pseudo=read geom=check guess=(rea
 d,tcheck) scf=(maxcycle=1)\\title\\0,1\H,0,2.75511322,-2.75302781,-0.0
 3281769\H,0,2.23328443,-3.6609344,1.39160682\H,0,2.88304587,-2.0285956
 1,1.58877553\H,0,0.87227038,-0.86572365,0.25189781\C,0,2.28978938,-2.6
 7174858,0.94522466\S,0,0.57786237,-2.06107277,0.80693494\H,0,-0.640474
 21,-0.62402903,-1.61614519\H,0,-0.73538744,0.84649264,-2.59550028\H,0,
 -2.87798076,0.18053792,-1.13488111\H,0,-0.59150209,2.54933642,0.997922

 Normal termination of Gaussian 16 at Wed Apr  9 04:11:28 2025.
