 Gaussian 16, Revision C.01,

 ----------------------------------------------------------------------
 #t hf aug-cc-pvdz symm=none int=(grid=ultrafine) guess=(read,tcheck) s
 table=(opt,rrhf)
 ----------------------------------------------------------------------
 -----
 title
 -----
 Symbolic Z-matrix:
 Charge =  0 Multiplicity = 1

 SCF Done:  E(RHF) =  -571.988208735     A.U. after   12 cycles
 Normal termination of Gaussian 16 at Wed Apr  9 19:23:55 2025.
 Gaussian 16:  ES64L-G16RevC.01  3-Jul-2019

 ----------------------------------------------------------------------
 #t hf aug-cc-pvdz iop(5/13=1,5/36=2,99/5=2) pseudo=read geom=check gue
 ss=(read,tcheck) scf=(maxcycle=1)
 ----------------------------------------------------------------------
 -----
 title
 -----
 Structure from the checkpoint file:  "HB300SPXx10_1072_4.11_0.85_methylamine_dimethylsulfide_dimer_mol1.chk"
 Charge =  0 Multiplicity = 1

                         Standard orientation:
 ---------------------------------------------------------------------
 Center     Atomic      Atomic             Coordinates (Angstroms)
 Number     Number       Type             X           Y           Z
 ---------------------------------------------------------------------
      1          7           0       -1.615998   -0.795662    0.149534
      2          1           0       -1.960196   -1.736536    0.013294
      3          1           0       -0.849090   -0.657552   -0.499445
      4          6           0       -2.674354    0.182943   -0.096427
      5          1           0       -2.277746    1.186036    0.058384
      6          1           0       -3.109646    0.149272   -1.101944
      7          1           0       -3.479464    0.038664    0.623509
      8          1           0        1.357724    1.667906    1.295522
      9          1           0       -0.262894    0.940753    1.127552
     10          1           0        0.238560    2.272282    0.063666
     11          1           0        1.997805   -1.966677   -0.172298
     12          1           0        0.736556   -1.494270    0.985892
     13          1           0        2.398209   -0.872180    1.160679
     14          6           0        0.575022    1.384819    0.594180
     15         16           0        1.211056    0.224283   -0.643713
     16          6           0        1.623544   -1.158861    0.451890
 ---------------------------------------------------------------------

 SCF Done:  E(RHF) =  -572.248793432     A.U. after    2 cycles

 The electronic state is 1-A.
 Alpha  occ. eigenvalues --  -93.93840 -15.46846 -11.25660 -11.25427 -11.24666
 Alpha  occ. eigenvalues --   -8.21971  -6.19794  -6.19640  -6.19438  -1.16499
 Alpha  occ. eigenvalues --   -1.08322  -0.95587  -0.90151  -0.82511  -0.69609
 Alpha  occ. eigenvalues --   -0.62618  -0.61005  -0.60736  -0.58249  -0.56976
 Alpha  occ. eigenvalues --   -0.56623  -0.52814  -0.50153  -0.44240  -0.42112
 Alpha  occ. eigenvalues --   -0.34491
 Alpha virt. eigenvalues --    0.03770   0.04067   0.04254   0.04940   0.06006
 Alpha virt. eigenvalues --    0.06026   0.06705   0.07502   0.08587   0.09217
 Alpha virt. eigenvalues --    0.10185   0.11837   0.13511   0.14197   0.14977

 Mulliken charges:
               1
     1  N    0.074080
     2  H    0.206958
     3  H    0.053731
     4  C   -0.416278
     5  H    0.022138
     6  H    0.088771
     7  H    0.083476
     8  H    0.082426
     9  H    0.236430
    10  H    0.176273
    11  H    0.148916
    12  H    0.128866
    13  H    0.159349
    14  C   -0.546495
    15  S    0.104656
    16  C   -0.603298
 Sum of Mulliken charges =   0.00000

 Dipole moment (field-independent basis, Debye):
    X=             -0.4586    Y=             -0.3359    Z=              0.6105  Tot=              0.8342

 Test job not archived.
 1\1\GINC-SE362\SP\RHF\Aug-CC-pVDZ\C3H11N1S1\OHZDE\09-Apr-2025\0\\#t hf
  aug-cc-pvdz iop(5/13=1,5/36=2,99/5=2) pseudo=read geom=check guess=(r
 ead,tcheck) scf=(maxcycle=1)\\title\\0,1\N,0,-1.19251098,0.46771599,1.
 69699571\H,0,-2.17204653,0.34511648,1.91553075\H,0,-1.12099987,0.60068
 208,0.69419832\C,0,-0.64549649,1.62445241,2.40482331\H,0,0.40921091,1.
 73255139,2.15309408\H,0,-1.13947726,2.57752576,2.18276464\H,0,-0.70604
 436,1.45678733,3.47978713\H,0,2.14244315,-0.88038273,-0.11578933\H,0,1
 .04490646,-0.21713135,1.12472721\H,0,1.98285095,0.8721049,0.08064556\H

 Normal termination of Gaussian 16 at Wed Apr  9 19:24:00 2025.
