 Gaussian 16, Revision C.01,

 ----------------------------------------------------------------------
 #t hf aug-cc-pvdz symm=none int=(grid=ultrafine) guess=(read,tcheck) s
 table=(opt,rrhf)
 ----------------------------------------------------------------------
 -----
 title
 -----
 Symbolic Z-matrix:
 Charge =  0 Multiplicity = 1

 SCF Done:  E(RHF) =  -437.697083661     A.U. after   11 cycles
 Normal termination of Gaussian 16 at Wed Apr  9 19:28:44 2025.
 Gaussian 16:  ES64L-G16RevC.01  3-Jul-2019

 ----------------------------------------------------------------------
 #t hf aug-cc-pvdz iop(5/13=1,5/36=2,99/5=2) pseudo=read geom=check gue
 ss=(read,tcheck) scf=(maxcycle=1)
 ----------------------------------------------------------------------
 -----
 title
 -----
 Structure from the checkpoint file:  "HB300SPXx10_12_1.02_0.85_phosphine_methylamine_dimer_mol1.chk"
 Charge =  0 Multiplicity = 1

                         Standard orientation:
 ---------------------------------------------------------------------
 Center     Atomic      Atomic             Coordinates (Angstroms)
 Number     Number       Type             X           Y           Z
 ---------------------------------------------------------------------
      1         15           0        1.703362    0.031751   -0.109841
      2          1           0        0.572329   -0.785050    0.134989
      3          1           0        2.631112   -0.905960    0.409109
      4          1           0        1.586598    0.729812    1.118564
      5          7           0       -1.680739   -0.730458    0.033812
      6          1           0       -2.259376   -1.030284    0.806682
      7          1           0       -2.096740   -1.102472   -0.809227
      8          6           0       -1.596526    0.728636   -0.023526
      9          1           0       -0.954541    1.018739   -0.854477
     10          1           0       -2.556393    1.243558   -0.142643
     11          1           0       -1.129086    1.096791    0.889100
 ---------------------------------------------------------------------

 SCF Done:  E(RHF) =  -437.854866133     A.U. after    2 cycles

 The electronic state is 1-A.
 Alpha  occ. eigenvalues --  -84.25382 -15.48855 -11.25646  -6.72589  -4.25056
 Alpha  occ. eigenvalues --   -4.24869  -4.24246  -1.17882  -0.91432  -0.85209
 Alpha  occ. eigenvalues --   -0.70147  -0.63919  -0.59175  -0.53949  -0.49298
 Alpha  occ. eigenvalues --   -0.48622  -0.42854  -0.34492
 Alpha virt. eigenvalues --    0.03382   0.04863   0.05089   0.05551   0.06618
 Alpha virt. eigenvalues --    0.07742   0.08751   0.10141   0.10609   0.11184
 Alpha virt. eigenvalues --    0.12106   0.14718   0.16530   0.16991   0.18153

 Mulliken charges:
               1
     1  P   -1.140644
     2  H    0.402364
     3  H    0.371541
     4  H    0.351091
     5  N   -0.132058
     6  H    0.170770
     7  H    0.166571
     8  C   -0.444365
     9  H    0.128450
    10  H    0.046645
    11  H    0.079635
 Sum of Mulliken charges =   0.00000

 Dipole moment (field-independent basis, Debye):
    X=             -2.0070    Y=              0.0893    Z=              0.1752  Tot=              2.0166

 Test job not archived.
 1\1\GINC-SE220\SP\RHF\Aug-CC-pVDZ\C1H8N1P1\OHZDE\09-Apr-2025\0\\#t hf
 aug-cc-pvdz iop(5/13=1,5/36=2,99/5=2) pseudo=read geom=check guess=(re
 ad,tcheck) scf=(maxcycle=1)\\title\\0,1\P,0,1.60554835,-0.39061782,-0.
 727406\H,0,0.88263451,-0.28817357,0.48636549\H,0,2.87161411,-0.472756,
 -0.09521777\H,0,1.68852005,1.01288402,-0.9096172\N,0,-1.21027686,0.061
 08571,1.25270202\H,0,-1.4107753,0.74187447,1.9726825\H,0,-1.74762744,-
 0.76715491,1.47050315\C,0,-1.55855348,0.57843229,-0.0703211\H,0,-1.315
 95548,-0.17012264,-0.82370991\H,0,-2.61102238,0.85595273,-0.19669317\H

 Normal termination of Gaussian 16 at Wed Apr  9 19:28:46 2025.
