 Gaussian 16, Revision C.01,

 ----------------------------------------------------------------------
 #t hf aug-cc-pvdz symm=none int=(grid=ultrafine) guess=(read,tcheck) s
 table=(opt,rrhf)
 ----------------------------------------------------------------------
 -----
 title
 -----
 Symbolic Z-matrix:
 Charge =  0 Multiplicity = 1

 SCF Done:  E(RHF) =  -977.989508416     A.U. after   13 cycles
 Normal termination of Gaussian 16 at Wed Apr  9 19:33:27 2025.
 Gaussian 16:  ES64L-G16RevC.01  3-Jul-2019

 ----------------------------------------------------------------------
 #t hf aug-cc-pvdz iop(5/13=1,5/36=2,99/5=2) pseudo=read geom=check gue
 ss=(read,tcheck) scf=(maxcycle=1)
 ----------------------------------------------------------------------
 -----
 title
 -----
 Structure from the checkpoint file:  "HB300SPXx10_1443_5.07_0.90_methanethiol_phosphineF2_dimer_mol1.chk"
 Charge =  0 Multiplicity = 1

                         Standard orientation:
 ---------------------------------------------------------------------
 Center     Atomic      Atomic             Coordinates (Angstroms)
 Number     Number       Type             X           Y           Z
 ---------------------------------------------------------------------
      1          1           0        1.340866    1.646420   -0.055105
      2          1           0        1.925772    0.924494   -1.560450
      3          1           0        3.079542    1.300603   -0.271488
      4          1           0        1.928916   -0.463689    1.433964
      5          6           0        2.069131    0.965635   -0.484222
      6         16           0        1.804058   -0.730522    0.125216
      7         15           0       -1.122960   -0.230284   -0.284862
      8          9           0       -0.799224    0.955081    0.746870
      9          9           0       -2.725335   -0.151299   -0.194434
     10          1           0       -0.989377   -1.293075    0.655966
 ---------------------------------------------------------------------

 SCF Done:  E(RHF) =  -978.321883051     A.U. after    2 cycles

 The electronic state is 1-A.
 Alpha  occ. eigenvalues --  -93.96552 -84.40143 -26.47661 -26.46642 -11.27720
 Alpha  occ. eigenvalues --   -8.24697  -6.85752  -6.22540  -6.22394  -6.22193
 Alpha  occ. eigenvalues --   -4.38574  -4.37937  -4.36882  -1.61498  -1.56833
 Alpha  occ. eigenvalues --   -1.07825  -0.90170  -0.87382  -0.70335  -0.70201
 Alpha  occ. eigenvalues --   -0.68831  -0.64053  -0.63108  -0.62098  -0.59757
 Alpha  occ. eigenvalues --   -0.57329  -0.54989  -0.48220  -0.39557  -0.36551
 Alpha virt. eigenvalues --    0.03526   0.04310   0.04874   0.05916   0.06970
 Alpha virt. eigenvalues --    0.08600   0.09876   0.10155   0.11503   0.12857
 Alpha virt. eigenvalues --    0.14098   0.15390   0.16135   0.16395   0.16961

 Mulliken charges:
               1
     1  H    0.139196
     2  H    0.197970
     3  H    0.103023
     4  H    0.382467
     5  C   -0.624171
     6  S   -0.231032
     7  P    1.527278
     8  F   -0.805224
     9  F   -0.782256
    10  H    0.092748
 Sum of Mulliken charges =  -0.00000

 Dipole moment (field-independent basis, Debye):
    X=              2.0962    Y=              0.3746    Z=              0.0671  Tot=              2.1305

 Test job not archived.
 1\1\GINC-SE056\SP\RHF\Aug-CC-pVDZ\C1H5F2P1S1\OHZDE\09-Apr-2025\0\\#t h
 f aug-cc-pvdz iop(5/13=1,5/36=2,99/5=2) pseudo=read geom=check guess=(
 read,tcheck) scf=(maxcycle=1)\\title\\0,1\H,0,-1.72434823,-0.02735536,
 -1.47402619\H,0,-1.29643549,-1.41515971,-2.4840979\H,0,-1.57230153,0.1
 6002765,-3.24353895\H,0,0.52779021,1.28305094,-1.94983564\C,0,-1.18500
 823,-0.34129171,-2.36202164\S,0,0.60124692,-0.03772908,-2.17289215\P,0
 ,0.30740704,-1.1064265,0.61231469\F,0,-0.7301975,0.11478622,0.6922054\
 F,0,0.38652808,-1.41396252,2.1874919\H,0,1.48545277,-0.3043602,0.57456

 Normal termination of Gaussian 16 at Wed Apr  9 19:33:30 2025.
