 Gaussian 16, Revision C.01,

 ----------------------------------------------------------------------
 #t hf aug-cc-pvdz symm=none int=(grid=ultrafine) guess=(read,tcheck) s
 table=(opt,rrhf)
 ----------------------------------------------------------------------
 -----
 title
 -----
 Symbolic Z-matrix:
 Charge =  0 Multiplicity = 1

 SCF Done:  E(RHF) =  -952.361967094     A.U. after   14 cycles

 1\1\GINC-SE097\Stability\RHF\Aug-CC-pVDZ\C4H10S2\OHZDE\09-Apr-2025\0\\
 #t hf aug-cc-pvdz symm=none int=(grid=ultrafine) guess=(read,tcheck) s
 table=(opt,rrhf)\\title\\0,1\H,0,1.94048627,-0.28311522,0.30003006\H,0
 ,2.70886397,-1.74966836,-0.33633756\H,0,2.5169729,-1.54996222,1.410513
 58\H,0,-0.19256655,-1.5118813,1.21090974\C,0,2.06439688,-1.35234501,0.
 4434425\S,0,0.46794236,-2.21627191,0.2804649\H,0,-3.18976057,1.1018623
 4,0.47638368\H,0,-3.24772505,1.55833798,-1.2397855\H,0,-2.60585386,-0.
 00834516,-0.78631237\H,0,0.45586078,2.03401585,-1.57890331\H,0,-0.3206

 Normal termination of Gaussian 16 at Wed Apr  9 19:23:09 2025.
 Gaussian 16:  ES64L-G16RevC.01  3-Jul-2019

 ----------------------------------------------------------------------
 #t hf aug-cc-pvdz iop(5/13=1,5/36=2,99/5=2) pseudo=read geom=check gue
 ss=(read,tcheck) scf=(maxcycle=1)
 ----------------------------------------------------------------------
 -----
 title
 -----
 Structure from the checkpoint file:  "HB300SPXx10_1028_4.06_1.25_methanethiol_thioacetone_dimer_mol1.chk"
 Charge =  0 Multiplicity = 1

                         Standard orientation:
 ---------------------------------------------------------------------
 Center     Atomic      Atomic             Coordinates (Angstroms)
 Number     Number       Type             X           Y           Z
 ---------------------------------------------------------------------
      1          1           0        1.752850   -1.358452    0.772175
      2          1           0        3.324299   -0.783588    1.360585
      3          1           0        3.236124   -1.690881   -0.155080
      4          1           0        1.696823    0.217629   -1.325994
      5          6           0        2.722690   -0.970812    0.474992
      6         16           0        2.546159    0.631892   -0.374584
      7          1           0       -2.192598    1.286369   -1.616770
      8          1           0       -2.782570    2.009138   -0.104650
      9          1           0       -1.083466    2.137608   -0.515349
     10          1           0       -1.180282   -0.542630    2.126711
     11          1           0       -0.335576    0.944733    1.643267
     12          6           0       -1.952015    1.477924   -0.576677
     13          6           0       -1.669446    0.212686    0.172499
     14         16           0       -1.753265   -1.255963   -0.523463
     15          6           0       -1.284608    0.403449    1.606609
     16          1           0       -2.021638    1.025727    2.119308
 ---------------------------------------------------------------------

 SCF Done:  E(RHF) =  -952.654874404     A.U. after    2 cycles

 The electronic state is 1-A.
 Alpha  occ. eigenvalues --  -93.95036 -93.92299 -11.33195 -11.26863 -11.25175
 Alpha  occ. eigenvalues --  -11.25072  -8.23126  -8.20581  -6.20988  -6.20842
 Alpha  occ. eigenvalues --   -6.20611  -6.18399  -6.18209  -6.17982  -1.13419
 Alpha  occ. eigenvalues --   -1.06278  -0.97491  -0.97170  -0.88616  -0.73239
 Alpha  occ. eigenvalues --   -0.62531  -0.62116  -0.62077  -0.61736  -0.59945
 Alpha  occ. eigenvalues --   -0.56668  -0.53974  -0.53753  -0.50589  -0.46939
 Alpha  occ. eigenvalues --   -0.39364  -0.36677  -0.34289
 Alpha virt. eigenvalues --    0.03266   0.03577   0.03996   0.04696   0.05570
 Alpha virt. eigenvalues --    0.05838   0.06370   0.07058   0.07996   0.08529
 Alpha virt. eigenvalues --    0.09268   0.09926   0.11610   0.12026   0.12771

 Mulliken charges:
               1
     1  H    0.078178
     2  H    0.184701
     3  H    0.142323
     4  H    0.348851
     5  C   -0.657174
     6  S   -0.111240
     7  H    0.173151
     8  H    0.241121
     9  H    0.234847
    10  H    0.166121
    11  H    0.281661
    12  C   -0.483120
    13  C   -0.393038
    14  S    0.022433
    15  C   -0.435426
    16  H    0.206611
 Sum of Mulliken charges =  -0.00000

 Dipole moment (field-independent basis, Debye):
    X=             -0.1422    Y=              1.4122    Z=              1.6096  Tot=              2.1460

 Test job not archived.
 1\1\GINC-SE097\SP\RHF\Aug-CC-pVDZ\C4H10S2\OHZDE\09-Apr-2025\0\\#t hf a
 ug-cc-pvdz iop(5/13=1,5/36=2,99/5=2) pseudo=read geom=check guess=(rea
 d,tcheck) scf=(maxcycle=1)\\title\\0,1\H,0,1.94048627,-0.28311522,0.30
 003006\H,0,2.70886397,-1.74966836,-0.33633756\H,0,2.5169729,-1.5499622
 2,1.41051358\H,0,-0.19256655,-1.5118813,1.21090974\C,0,2.06439688,-1.3
 5234501,0.4434425\S,0,0.46794236,-2.21627191,0.2804649\H,0,-3.18976057
 ,1.10186234,0.47638368\H,0,-3.24772505,1.55833798,-1.2397855\H,0,-2.60
 585386,-0.00834516,-0.78631237\H,0,0.45586078,2.03401585,-1.57890331\H

 Normal termination of Gaussian 16 at Wed Apr  9 19:23:14 2025.
