 Gaussian 16, Revision C.01,

 ----------------------------------------------------------------------
 #t hf aug-cc-pvdz symm=none int=(grid=ultrafine) guess=(read,tcheck) s
 table=(opt,rrhf)
 ----------------------------------------------------------------------
 -----
 title
 -----
 Symbolic Z-matrix:
 Charge =  0 Multiplicity = 1

 SCF Done:  E(RHF) =  -704.618030635     A.U. after   13 cycles
 Normal termination of Gaussian 16 at Wed Apr  9 19:26:16 2025.
 Gaussian 16:  ES64L-G16RevC.01  3-Jul-2019

 ----------------------------------------------------------------------
 #t hf aug-cc-pvdz iop(5/13=1,5/36=2,99/5=2) pseudo=read geom=check gue
 ss=(read,tcheck) scf=(maxcycle=1)
 ----------------------------------------------------------------------
 -----
 title
 -----
 Structure from the checkpoint file:  "HB300SPXx10_1129_4.16_1.50_aceticacid_dimethylsulfide_dimer_mol1.chk"
 Charge =  0 Multiplicity = 1

                         Standard orientation:
 ---------------------------------------------------------------------
 Center     Atomic      Atomic             Coordinates (Angstroms)
 Number     Number       Type             X           Y           Z
 ---------------------------------------------------------------------
      1          6           0        0.244140    2.411198   -0.000000
      2          8           0       -0.847038    1.889406   -0.000000
      3          8           0        1.390819    1.722147   -0.000000
      4          1           0        1.191951    0.752783   -0.000000
      5          6           0        0.479873    3.896549   -0.000000
      6          1           0       -0.469491    4.420349   -0.000000
      7          1           0        1.062100    4.176895    0.876781
      8          1           0        1.062100    4.176895   -0.876781
      9          1           0       -1.561718   -3.105619    1.379195
     10          1           0       -1.362283   -1.330671    1.315483
     11          1           0       -0.264124   -2.326140    2.299403
     12          1           0       -0.264124   -2.326140   -2.299403
     13          1           0       -1.362283   -1.330671   -1.315483
     14          1           0       -1.561718   -3.105619   -1.379195
     15          6           0       -0.847038   -2.285572    1.382643
     16         16           0        0.312482   -2.457132    0.000000
     17          6           0       -0.847038   -2.285572   -1.382643
 ---------------------------------------------------------------------

 SCF Done:  E(RHF) =  -704.998554525     A.U. after    2 cycles

 The electronic state is 1-A'.
 Alpha  occ. eigenvalues --  -93.94110 -20.59972 -20.53414 -11.39467 -11.26045
 Alpha  occ. eigenvalues --  -11.26018 -11.25311  -8.22210  -6.20044  -6.19889
 Alpha  occ. eigenvalues --   -6.19666  -1.54545  -1.44755  -1.08522  -1.03026
 Alpha  occ. eigenvalues --   -0.95848  -0.82713  -0.82564  -0.70606  -0.68372
 Alpha  occ. eigenvalues --   -0.65101  -0.61449  -0.61123  -0.58562  -0.58103
 Alpha  occ. eigenvalues --   -0.57315  -0.57103  -0.56072  -0.50470  -0.47169
 Alpha  occ. eigenvalues --   -0.44456  -0.44207  -0.34666
 Alpha virt. eigenvalues --    0.03633   0.04002   0.04067   0.04848   0.05719
 Alpha virt. eigenvalues --    0.05959   0.06889   0.07480   0.07759   0.08694
 Alpha virt. eigenvalues --    0.10347   0.11021   0.13336   0.13542   0.14065

 Mulliken charges:
               1
     1  C    1.912730
     2  O   -1.198588
     3  O   -1.245536
     4  H    0.444225
     5  C   -0.552519
     6  H    0.182144
     7  H    0.225966
     8  H    0.225966
     9  H    0.169633
    10  H    0.173693
    11  H    0.144738
    12  H    0.144738
    13  H    0.173693
    14  H    0.169633
    15  C   -0.652319
    16  S    0.334122
    17  C   -0.652319
 Sum of Mulliken charges =  -0.00000

 Dipole moment (field-independent basis, Debye):
    X=             -0.1496    Y=              0.8131    Z=             -0.0000  Tot=              0.8267

 Test job not archived.
 1\1\GINC-SE220\SP\RHF\Aug-CC-pVDZ\C4H10O2S1\OHZDE\09-Apr-2025\0\\#t hf
  aug-cc-pvdz iop(5/13=1,5/36=2,99/5=2) pseudo=read geom=check guess=(r
 ead,tcheck) scf=(maxcycle=1)\\title\\0,1\C,0,0.08152563,1.86646531,0.\
 O,0,1.12794826,1.25988757,0.\O,0,-1.11612638,1.27040068,0.\H,0,-0.9946
 6015,0.28833063,0.\C,0,-0.03582077,3.36582142,0.\H,0,0.95204799,3.8127
 8193,0.\H,0,-0.5940149,3.69140047,-0.87678098\H,0,-0.5940149,3.6914004
 7,0.87678098\H,0,1.4447584,-3.77605139,-1.37919498\H,0,1.38653184,-1.9
 908834,-1.31548339\H,0,0.21297789,-2.89624675,-2.29940307\H,0,0.212977

 Normal termination of Gaussian 16 at Wed Apr  9 19:26:20 2025.
