 Gaussian 16, Revision C.01,

 ----------------------------------------------------------------------
 #t hf aug-cc-pvdz symm=none int=(grid=ultrafine) guess=(read,tcheck) s
 table=(opt,rrhf)
 ----------------------------------------------------------------------
 -----
 title
 -----
 Symbolic Z-matrix:
 Charge =  0 Multiplicity = 1

 SCF Done:  E(RHF) =  -1017.01610768     A.U. after   13 cycles
 Normal termination of Gaussian 16 at Wed Apr  9 19:31:04 2025.
 Gaussian 16:  ES64L-G16RevC.01  3-Jul-2019

 ----------------------------------------------------------------------
 #t hf aug-cc-pvdz iop(5/13=1,5/36=2,99/5=2) pseudo=read geom=check gue
 ss=(read,tcheck) scf=(maxcycle=1)
 ----------------------------------------------------------------------
 -----
 title
 -----
 Structure from the checkpoint file:  "HB300SPXx10_1381_5.01_0.80_dimethylsulfide_phosphineF2_dimer_mol1.chk"
 Charge =  0 Multiplicity = 1

                         Standard orientation:
 ---------------------------------------------------------------------
 Center     Atomic      Atomic             Coordinates (Angstroms)
 Number     Number       Type             X           Y           Z
 ---------------------------------------------------------------------
      1          1           0       -0.491087    0.889270    1.440424
      2          1           0       -2.235714    1.253985    1.415205
      3          1           0       -1.095630    2.269636    0.514809
      4          1           0       -1.906170   -2.084164   -0.715337
      5          1           0       -2.684901   -1.362305    0.700406
      6          1           0       -0.928435   -1.660319    0.701412
      7          6           0       -1.315964    1.253999    0.833111
      8         16           0       -1.502737    0.253593   -0.664718
      9          6           0       -1.781563   -1.367655    0.093073
     10         15           0        1.877905   -0.293808   -0.329503
     11          9           0        1.082676   -0.974747    0.882721
     12          9           0        1.465270    1.227353   -0.074927
     13          1           0        0.870814   -0.547987   -1.306119
 ---------------------------------------------------------------------

 SCF Done:  E(RHF) =  -1017.39048632     A.U. after    2 cycles

 The electronic state is 1-A.
 Alpha  occ. eigenvalues --  -93.93522 -84.40624 -26.48654 -26.48304 -11.25573
 Alpha  occ. eigenvalues --  -11.25427  -8.21691  -6.86367  -6.19516  -6.19358
 Alpha  occ. eigenvalues --   -6.19147  -4.39240  -4.38509  -4.37616  -1.62896
 Alpha  occ. eigenvalues --   -1.58410  -1.08192  -0.95562  -0.88683  -0.82356
 Alpha  occ. eigenvalues --   -0.71964  -0.71564  -0.70250  -0.65798  -0.62713
 Alpha  occ. eigenvalues --   -0.60712  -0.60141  -0.58275  -0.57518  -0.56472
 Alpha  occ. eigenvalues --   -0.50073  -0.44218  -0.39164  -0.33389
 Alpha virt. eigenvalues --    0.03873   0.04245   0.04758   0.05507   0.06607
 Alpha virt. eigenvalues --    0.06926   0.07588   0.08946   0.09653   0.10057
 Alpha virt. eigenvalues --    0.12199   0.13791   0.15026   0.15726   0.16144

 Mulliken charges:
               1
     1  H    0.197247
     2  H    0.103168
     3  H    0.156245
     4  H    0.148744
     5  H    0.131067
     6  H    0.165165
     7  C   -0.570918
     8  S    0.232392
     9  C   -0.615570
    10  P    1.373614
    11  F   -0.756006
    12  F   -0.713596
    13  H    0.148447
 Sum of Mulliken charges =   0.00000

 Dipole moment (field-independent basis, Debye):
    X=              0.1698    Y=             -0.9699    Z=              0.3724  Tot=              1.0527

 Test job not archived.
 1\1\GINC-SE174\SP\RHF\Aug-CC-pVDZ\C2H7F2P1S1\OHZDE\09-Apr-2025\0\\#t h
 f aug-cc-pvdz iop(5/13=1,5/36=2,99/5=2) pseudo=read geom=check guess=(
 read,tcheck) scf=(maxcycle=1)\\title\\0,1\H,0,0.35324965,2.18742239,-0
 .72380577\H,0,0.23256961,2.54349189,-2.46622469\H,0,1.47961489,1.43776
 879,-1.86264863\H,0,-2.97879656,0.33269977,-1.6977403\H,0,-2.43534977,
 1.89515642,-2.32640837\H,0,-2.24831697,1.5140911,-0.59615001\C,0,0.456
 3691,1.7777672,-1.72571744\S,0,-0.61885679,0.337269,-1.94490696\C,0,-2
 .22218849,1.10820804,-1.60517522\P,0,-0.219801,-0.07022691,1.44853647\

 Normal termination of Gaussian 16 at Wed Apr  9 19:31:08 2025.
