 Gaussian 16, Revision C.01,

 ----------------------------------------------------------------------
 #t hf aug-cc-pvdz symm=none int=(grid=ultrafine) guess=(read,tcheck) s
 table=(opt,rrhf)
 ----------------------------------------------------------------------
 -----
 title
 -----
 Symbolic Z-matrix:
 Charge =  0 Multiplicity = 1

 SCF Done:  E(RHF) =  -897.826001743     A.U. after   11 cycles
 Normal termination of Gaussian 16 at Wed Apr  9 19:29:43 2025.
 Gaussian 16:  ES64L-G16RevC.01  3-Jul-2019

 ----------------------------------------------------------------------
 #t hf aug-cc-pvdz iop(5/13=1,5/36=2,99/5=2) pseudo=read geom=check gue
 ss=(read,tcheck) scf=(maxcycle=1)
 ----------------------------------------------------------------------
 -----
 title
 -----
 Structure from the checkpoint file:  "HB300SPXx10_1336_4.38_1.05_hydrogenchloride_methanethiol_dimer_mol1.chk"
 Charge =  0 Multiplicity = 1

                         Standard orientation:
 ---------------------------------------------------------------------
 Center     Atomic      Atomic             Coordinates (Angstroms)
 Number     Number       Type             X           Y           Z
 ---------------------------------------------------------------------
      1          1           0       -0.961316   -0.391193   -0.090905
      2         17           0       -2.190621    0.049900    0.004449
      3          1           0        0.757433    1.580963    0.556482
      4          1           0        1.583405    1.497244   -1.005043
      5          1           0        2.533577    1.395810    0.484599
      6          1           0        1.420897   -0.929035    1.231998
      7          6           0        1.588559    1.134789    0.019091
      8         16           0        1.398450   -0.675676   -0.085457
 ---------------------------------------------------------------------

 SCF Done:  E(RHF) =  -898.012247517     A.U. after    2 cycles

 The electronic state is 1-A.
 Alpha  occ. eigenvalues -- -105.56212 -93.97124 -11.28326 -10.60974  -8.25210
 Alpha  occ. eigenvalues --   -7.77944  -7.77583  -7.77581  -6.23060  -6.22913
 Alpha  occ. eigenvalues --   -6.22706  -1.08244  -1.04985  -0.90373  -0.63417
 Alpha  occ. eigenvalues --   -0.62667  -0.60196  -0.55414  -0.48683  -0.46764
 Alpha  occ. eigenvalues --   -0.46735  -0.38810
 Alpha virt. eigenvalues --    0.03192   0.04195   0.05114   0.05778   0.07848
 Alpha virt. eigenvalues --    0.10047   0.11174   0.12924   0.14253   0.14297
 Alpha virt. eigenvalues --    0.15597   0.16095   0.16996   0.17973   0.19173

 Mulliken charges:
               1
     1  H    0.286458
     2  Cl  -0.206369
     3  H    0.109389
     4  H    0.207666
     5  H    0.122146
     6  H    0.373620
     7  C   -0.604519
     8  S   -0.288391
 Sum of Mulliken charges =   0.00000

 Dipole moment (field-independent basis, Debye):
    X=              2.3589    Y=              0.9806    Z=              0.8269  Tot=              2.6851

 Test job not archived.
 1\1\GINC-SE173\SP\RHF\Aug-CC-pVDZ\C1H5Cl1S1\OHZDE\09-Apr-2025\0\\#t hf
  aug-cc-pvdz iop(5/13=1,5/36=2,99/5=2) pseudo=read geom=check guess=(r
 ead,tcheck) scf=(maxcycle=1)\\title\\0,1\H,0,-0.71323053,0.36081391,-0
 .38963987\Cl,0,-0.97574618,1.50432633,-0.9712843\H,0,1.77334032,0.4261
 232,0.64733179\H,0,2.2984457,-0.97970704,-0.28835363\H,0,2.53069524,-0
 .97035825,1.46610423\H,0,-0.10294345,-0.95133696,1.98103387\C,0,1.8775
 8851,-0.65444614,0.65892496\S,0,0.24888445,-1.463474,0.79178401\\Versi
 on=ES64L-G16RevC.01\State=1-A\HF=-898.0122475\RMSD=4.942e-03\Dipole=0.

 Normal termination of Gaussian 16 at Wed Apr  9 19:29:45 2025.
