 Gaussian 16, Revision C.01,

 ----------------------------------------------------------------------
 #t hf aug-cc-pvdz symm=none int=(grid=ultrafine) guess=(read,tcheck) s
 table=(opt,rrhf)
 ----------------------------------------------------------------------
 -----
 title
 -----
 Symbolic Z-matrix:
 Charge =  0 Multiplicity = 1

 SCF Done:  E(RHF) =  -605.476726274     A.U. after   13 cycles
 Normal termination of Gaussian 16 at Wed Apr  9 19:26:46 2025.
 Gaussian 16:  ES64L-G16RevC.01  3-Jul-2019

 ----------------------------------------------------------------------
 #t hf aug-cc-pvdz iop(5/13=1,5/36=2,99/5=2) pseudo=read geom=check gue
 ss=(read,tcheck) scf=(maxcycle=1)
 ----------------------------------------------------------------------
 -----
 title
 -----
 Structure from the checkpoint file:  "HB300SPXx10_113_1.12_0.90_sulfane_methylcyanate_dimer_mol1.chk"
 Charge =  0 Multiplicity = 1

                         Standard orientation:
 ---------------------------------------------------------------------
 Center     Atomic      Atomic             Coordinates (Angstroms)
 Number     Number       Type             X           Y           Z
 ---------------------------------------------------------------------
      1          1           0        1.411021    0.873802    0.026717
      2          1           0        2.438693   -0.309668    1.175651
      3         16           0        2.121434   -0.257095   -0.126322
      4          1           0       -1.722681   -1.300665    1.311262
      5          1           0       -2.035604   -2.158678   -0.224863
      6          1           0       -0.380423   -1.587188    0.158124
      7          6           0       -1.444399   -1.394860    0.264872
      8          8           0       -1.780854   -0.153762   -0.432192
      9          6           0       -1.134248    0.885667   -0.056350
     10          7           0       -0.562177    1.840166    0.254382
 ---------------------------------------------------------------------

 SCF Done:  E(RHF) =  -605.744110583     A.U. after    2 cycles

 The electronic state is 1-A.
 Alpha  occ. eigenvalues --  -93.95575 -20.64887 -15.51329 -11.35120 -11.33636
 Alpha  occ. eigenvalues --   -8.23719  -6.21597  -6.21480  -6.21247  -1.57817
 Alpha  occ. eigenvalues --   -1.24124  -1.01705  -1.01290  -0.80498  -0.71351
 Alpha  occ. eigenvalues --   -0.70116  -0.62331  -0.60260  -0.59074  -0.57988
 Alpha  occ. eigenvalues --   -0.51155  -0.49025  -0.46751  -0.38869
 Alpha virt. eigenvalues --    0.02841   0.04208   0.04863   0.05759   0.07540
 Alpha virt. eigenvalues --    0.09048   0.10726   0.11174   0.11705   0.12896
 Alpha virt. eigenvalues --    0.14051   0.14506   0.14870   0.15331   0.16064

 Mulliken charges:
               1
     1  H    0.428844
     2  H    0.263875
     3  S   -0.686751
     4  H    0.159865
     5  H    0.049582
     6  H    0.190182
     7  C    0.339801
     8  O   -1.044277
     9  C   -0.456470
    10  N    0.755349
 Sum of Mulliken charges =   0.00000

 Dipole moment (field-independent basis, Debye):
    X=             -1.7423    Y=             -4.2779    Z=              0.9961  Tot=              4.7253

 Test job not archived.
 1\1\GINC-SE168\SP\RHF\Aug-CC-pVDZ\C2H5N1O1S1\OHZDE\09-Apr-2025\0\\#t h
 f aug-cc-pvdz iop(5/13=1,5/36=2,99/5=2) pseudo=read geom=check guess=(
 read,tcheck) scf=(maxcycle=1)\\title\\0,1\H,0,1.70020261,0.23216325,0.
 14198181\H,0,1.83071194,2.07603691,0.74186388\S,0,1.65222468,0.8789214
 7,1.31945248\H,0,-2.16323228,1.1625937,-0.49568571\H,0,-2.8434697,0.19
 419842,0.84344573\H,0,-1.17245179,0.83195704,0.96119811\C,0,-1.9445429
 7,0.45257292,0.29759272\O,0,-1.49149751,-0.804159,-0.298056\C,0,-0.386
 44483,-0.74532314,-0.94238818\N,0,0.61184312,-0.72701956,-1.52374381\\

 Normal termination of Gaussian 16 at Wed Apr  9 19:26:49 2025.
