 Gaussian 16, Revision C.01,

 ----------------------------------------------------------------------
 #t hf aug-cc-pvdz symm=none int=(grid=ultrafine) guess=(read,tcheck) s
 table=(opt,rrhf)
 ----------------------------------------------------------------------
 -----
 title
 -----
 Symbolic Z-matrix:
 Charge =  0 Multiplicity = 1

 SCF Done:  E(RHF) =  -648.915225546     A.U. after   12 cycles
 Normal termination of Gaussian 16 at Wed Apr  9 19:25:32 2025.
 Gaussian 16:  ES64L-G16RevC.01  3-Jul-2019

 ----------------------------------------------------------------------
 #t hf aug-cc-pvdz iop(5/13=1,5/36=2,99/5=2) pseudo=read geom=check gue
 ss=(read,tcheck) scf=(maxcycle=1)
 ----------------------------------------------------------------------
 -----
 title
 -----
 Structure from the checkpoint file:  "HB300SPXx10_1088_4.12_1.25_methylamine_tetrahydrothiophene_dimer_mol1.chk"
 Charge =  0 Multiplicity = 1

                         Standard orientation:
 ---------------------------------------------------------------------
 Center     Atomic      Atomic             Coordinates (Angstroms)
 Number     Number       Type             X           Y           Z
 ---------------------------------------------------------------------
      1          7           0        2.785700   -0.250514    0.792889
      2          1           0        2.024726   -0.835460    0.463796
      3          1           0        3.372614   -0.826393    1.381481
      4          6           0        3.549157    0.275533   -0.337441
      5          1           0        4.374307    0.884331    0.030906
      6          1           0        3.964134   -0.485028   -1.009222
      7          1           0        2.909423    0.928225   -0.931587
      8          1           0       -1.806913    0.523702   -1.968878
      9          1           0       -0.049376    0.351098   -1.974539
     10          1           0       -1.109348    2.426792   -0.642827
     11          1           0       -0.555005   -0.538378    1.791010
     12          1           0        0.179526    1.497286    0.130061
     13          1           0       -2.260778   -0.993710    1.637884
     14          1           0       -1.651987    1.613446    1.769603
     15          1           0       -2.813571    1.087551    0.552056
     16         16           0       -1.090537   -1.234102   -0.466449
     17          6           0       -0.931001    0.379082   -1.339549
     18          6           0       -0.840445    1.445987   -0.249819
     19          6           0       -1.774651    1.002601    0.875119
     20          6           0       -1.441237   -0.458908    1.165558
 ---------------------------------------------------------------------

 SCF Done:  E(RHF) =  -649.256293450     A.U. after    2 cycles

 The electronic state is 1-A.
 Alpha  occ. eigenvalues --  -93.92947 -15.47866 -11.26046 -11.25916 -11.24980
 Alpha  occ. eigenvalues --  -11.23805 -11.23685  -8.21065  -6.18870  -6.18751
 Alpha  occ. eigenvalues --   -6.18522  -1.16743  -1.13628  -0.98815  -0.98153
 Alpha  occ. eigenvalues --   -0.90339  -0.79773  -0.79453  -0.69098  -0.66370
 Alpha  occ. eigenvalues --   -0.64864  -0.62649  -0.60572  -0.57857  -0.55470
 Alpha  occ. eigenvalues --   -0.52991  -0.51329  -0.50031  -0.48587  -0.48444
 Alpha  occ. eigenvalues --   -0.42912  -0.42408  -0.33872
 Alpha virt. eigenvalues --    0.03571   0.03634   0.03841   0.04332   0.05669
 Alpha virt. eigenvalues --    0.05719   0.05806   0.06753   0.07727   0.07964
 Alpha virt. eigenvalues --    0.08608   0.09069   0.10379   0.11573   0.13479

 Mulliken charges:
               1
     1  N    0.034103
     2  H    0.053316
     3  H    0.150062
     4  C   -0.441793
     5  H    0.070343
     6  H    0.103125
     7  H    0.052481
     8  H    0.156870
     9  H    0.127260
    10  H    0.150826
    11  H    0.131726
    12  H    0.129788
    13  H    0.168064
    14  H    0.138959
    15  H    0.098427
    16  S    0.477440
    17  C   -0.627223
    18  C   -0.193126
    19  C   -0.271684
    20  C   -0.508965
 Sum of Mulliken charges =  -0.00000

 Dipole moment (field-independent basis, Debye):
    X=              0.2846    Y=              1.1396    Z=              0.0286  Tot=              1.1750

 Test job not archived.
 1\1\GINC-SE168\SP\RHF\Aug-CC-pVDZ\C5H13N1S1\OHZDE\09-Apr-2025\0\\#t hf
  aug-cc-pvdz iop(5/13=1,5/36=2,99/5=2) pseudo=read geom=check guess=(r
 ead,tcheck) scf=(maxcycle=1)\\title\\0,1\N,0,-0.48023551,2.04199658,1.
 33183501\H,0,-0.98136805,1.22913012,0.98881982\H,0,-1.14375731,2.80345
 765,1.38144373\C,0,0.08991425,1.76981847,2.65020044\H,0,0.60698078,2.6
 5693888,3.01468146\H,0,-0.63523497,1.46399211,3.41346792\H,0,0.8338340
 5,0.97768014,2.5643137\H,0,0.84129425,-2.9631911,-0.25577851\H,0,0.551
 47218,-1.82058145,1.05921468\H,0,2.56952397,-1.30912205,-0.63529982\H,

 Normal termination of Gaussian 16 at Wed Apr  9 19:25:40 2025.
