 Gaussian 16, Revision C.01,

 ----------------------------------------------------------------------
 #t hf aug-cc-pvdz symm=none int=(grid=ultrafine) guess=(read,tcheck) s
 table=(opt,rrhf)
 ----------------------------------------------------------------------
 -----
 title
 -----
 Symbolic Z-matrix:
 Charge =  0 Multiplicity = 1

 SCF Done:  E(RHF) =  -797.397111344     A.U. after   10 cycles
 Normal termination of Gaussian 16 at Wed Apr  9 19:28:42 2025.
 Gaussian 16:  ES64L-G16RevC.01  3-Jul-2019

 ----------------------------------------------------------------------
 #t hf aug-cc-pvdz iop(5/13=1,5/36=2,99/5=2) pseudo=read geom=check gue
 ss=(read,tcheck) scf=(maxcycle=1)
 ----------------------------------------------------------------------
 -----
 title
 -----
 Structure from the checkpoint file:  "HB300SPXx10_1227_4.27_1.10_sulfane_sulfane_dimer_mol1.chk"
 Charge =  0 Multiplicity = 1

                         Standard orientation:
 ---------------------------------------------------------------------
 Center     Atomic      Atomic             Coordinates (Angstroms)
 Number     Number       Type             X           Y           Z
 ---------------------------------------------------------------------
      1          1           0       -0.873707   -0.079030   -0.113117
      2          1           0       -2.266050    1.263009    0.083750
      3         16           0       -2.214722   -0.074229   -0.002365
      4          1           0        2.093826    0.374334    1.218914
      5          1           0        2.287903    1.133937   -0.555476
      6         16           0        2.137099   -0.094037   -0.037264
 ---------------------------------------------------------------------

 SCF Done:  E(RHF) =  -797.522768996     A.U. after    2 cycles

 The electronic state is 1-A.
 Alpha  occ. eigenvalues --  -93.97386 -93.95632  -8.25463  -8.23723  -6.23335
 Alpha  occ. eigenvalues --   -6.23221  -6.22969  -6.21598  -6.21483  -6.21234
 Alpha  occ. eigenvalues --   -1.02923  -1.01150  -0.60666  -0.59041  -0.51877
 Alpha  occ. eigenvalues --   -0.50284  -0.40192  -0.38497
 Alpha virt. eigenvalues --    0.03015   0.05031   0.05672   0.06951   0.10902
 Alpha virt. eigenvalues --    0.11469   0.11873   0.13420   0.13747   0.14969
 Alpha virt. eigenvalues --    0.17680   0.19913   0.20243   0.20770   0.25391

 Mulliken charges:
               1
     1  H    0.267920
     2  H    0.261069
     3  S   -0.516904
     4  H    0.288632
     5  H    0.282726
     6  S   -0.583443
 Sum of Mulliken charges =   0.00000

 Dipole moment (field-independent basis, Debye):
    X=              1.2454    Y=              1.8964    Z=              0.4477  Tot=              2.3125

 Test job not archived.
 1\1\GINC-SE125\SP\RHF\Aug-CC-pVDZ\H4S2\OHZDE\09-Apr-2025\0\\#t hf aug-
 cc-pvdz iop(5/13=1,5/36=2,99/5=2) pseudo=read geom=check guess=(read,t
 check) scf=(maxcycle=1)\\title\\0,1\H,0,0.53139832,0.64498716,-0.29055
 053\H,0,2.23879772,0.67266195,0.63813986\S,0,1.60273769,1.45777787,-0.
 24349168\H,0,-2.13452619,-0.63565157,1.13735285\H,0,-1.36655547,-2.151
 21066,0.20117815\S,0,-1.98102004,-1.00926223,-0.14173969\\Version=ES64
 L-G16RevC.01\State=1-A\HF=-797.522769\RMSD=4.980e-03\Dipole=-0.1139461
 ,-0.6651393,0.6102329\Quadrupole=-1.1680985,0.2748807,0.8932178,-2.021

 Normal termination of Gaussian 16 at Wed Apr  9 19:28:44 2025.
