 Gaussian 16, Revision C.01,

 ----------------------------------------------------------------------
 #t hf aug-cc-pvdz symm=none int=(grid=ultrafine) guess=(read,tcheck) s
 table=(opt,rrhf)
 ----------------------------------------------------------------------
 -----
 title
 -----
 Symbolic Z-matrix:
 Charge =  0 Multiplicity = 1

 SCF Done:  E(RHF) =  -952.370007456     A.U. after   13 cycles

 1\1\GINC-SE159\Stability\RHF\Aug-CC-pVDZ\C4H10S2\OHZDE\09-Apr-2025\0\\
 #t hf aug-cc-pvdz symm=none int=(grid=ultrafine) guess=(read,tcheck) s
 table=(opt,rrhf)\\title\\0,1\H,0,1.25927999,1.11406487,-0.28265552\H,0
 ,2.28279017,2.73418341,-0.67577847\S,0,1.07110419,2.4516331,-0.1764195
 4\H,0,0.32370952,0.32474992,1.77954112\H,0,0.23389075,-1.41846381,2.06
 054982\H,0,-2.06909185,-0.06368483,1.8715422\H,0,-1.08650452,-1.386855
 91,-1.68395586\H,0,-1.92171234,-1.58191069,0.98923562\H,0,-0.38225684,
 0.19894623,-2.02747965\H,0,-2.69453831,0.09233821,-0.65364133\H,0,-1.4

 Normal termination of Gaussian 16 at Wed Apr  9 19:29:16 2025.
 Gaussian 16:  ES64L-G16RevC.01  3-Jul-2019

 ----------------------------------------------------------------------
 #t hf aug-cc-pvdz iop(5/13=1,5/36=2,99/5=2) pseudo=read geom=check gue
 ss=(read,tcheck) scf=(maxcycle=1)
 ----------------------------------------------------------------------
 -----
 title
 -----
 Structure from the checkpoint file:  "HB300SPXx10_1232_4.28_0.85_sulfane_tetrahydrothiophene_dimer_mol1.chk"
 Charge =  0 Multiplicity = 1

                         Standard orientation:
 ---------------------------------------------------------------------
 Center     Atomic      Atomic             Coordinates (Angstroms)
 Number     Number       Type             X           Y           Z
 ---------------------------------------------------------------------
      1          1           0        1.431728    0.575426    0.003349
      2          1           0        3.385115    0.559137    0.107831
      3         16           0        2.421400   -0.338083   -0.144415
      4          1           0       -0.036292    0.000484   -1.803672
      5          1           0       -1.570051    0.865633   -1.961553
      6          1           0       -1.665156   -1.758805   -1.434148
      7          1           0       -1.696913    0.212215    1.952871
      8          1           0       -2.710219   -0.685045   -0.506744
      9          1           0        0.048048   -0.053051    2.069007
     10          1           0       -1.495940   -2.056997    1.149363
     11          1           0        0.032916   -1.714833    0.351448
     12         16           0       -0.515943    1.331376    0.162897
     13          6           0       -0.950167    0.284633   -1.284334
     14          6           0       -1.669976   -0.936749   -0.718261
     15          6           0       -0.951455   -1.304612    0.578935
     16          6           0       -0.796826   -0.016079    1.386415
 ---------------------------------------------------------------------

 SCF Done:  E(RHF) =  -952.667385222     A.U. after    2 cycles

 The electronic state is 1-A.
 Alpha  occ. eigenvalues --  -93.94228 -93.93522 -11.26880 -11.26869 -11.24597
 Alpha  occ. eigenvalues --  -11.24438  -8.22416  -8.21751  -6.20200  -6.20086
 Alpha  occ. eigenvalues --   -6.19893  -6.19633  -6.19509  -6.19283  -1.14789
 Alpha  occ. eigenvalues --   -1.00516  -0.99740  -0.98903  -0.80670  -0.80578
 Alpha  occ. eigenvalues --   -0.67721  -0.65842  -0.61531  -0.59323  -0.55362
 Alpha  occ. eigenvalues --   -0.52182  -0.50908  -0.50070  -0.49523  -0.48518
 Alpha  occ. eigenvalues --   -0.44092  -0.37256  -0.34498
 Alpha virt. eigenvalues --    0.03366   0.03799   0.04167   0.04300   0.05828
 Alpha virt. eigenvalues --    0.06366   0.06827   0.07650   0.07884   0.09155
 Alpha virt. eigenvalues --    0.11971   0.12847   0.12914   0.14321   0.14503

 Mulliken charges:
               1
     1  H    0.585187
     2  H    0.177551
     3  S   -0.613576
     4  H    0.082500
     5  H    0.153532
     6  H    0.131821
     7  H    0.117847
     8  H    0.109300
     9  H    0.130199
    10  H    0.151155
    11  H    0.084319
    12  S    0.168313
    13  C   -0.382546
    14  C   -0.246541
    15  C   -0.289901
    16  C   -0.359161
 Sum of Mulliken charges =  -0.00000

 Dipole moment (field-independent basis, Debye):
    X=             -1.6769    Y=             -0.6860    Z=              0.1481  Tot=              1.8178

 Test job not archived.
 1\1\GINC-SE159\SP\RHF\Aug-CC-pVDZ\C4H10S2\OHZDE\09-Apr-2025\0\\#t hf a
 ug-cc-pvdz iop(5/13=1,5/36=2,99/5=2) pseudo=read geom=check guess=(rea
 d,tcheck) scf=(maxcycle=1)\\title\\0,1\H,0,1.25927999,1.11406487,-0.28
 265552\H,0,2.28279017,2.73418341,-0.67577847\S,0,1.07110419,2.4516331,
 -0.17641954\H,0,0.32370952,0.32474992,1.77954112\H,0,0.23389075,-1.418
 46381,2.06054982\H,0,-2.06909185,-0.06368483,1.8715422\H,0,-1.08650452
 ,-1.38685591,-1.68395586\H,0,-1.92171234,-1.58191069,0.98923562\H,0,-0
 .38225684,0.19894623,-2.02747965\H,0,-2.69453831,0.09233821,-0.6536413

 Normal termination of Gaussian 16 at Wed Apr  9 19:29:22 2025.
