 Gaussian 16, Revision C.01,

 ----------------------------------------------------------------------
 #t hf aug-cc-pvdz symm=none int=(grid=ultrafine) guess=(read,tcheck) s
 table=(opt,rrhf)
 ----------------------------------------------------------------------
 -----
 title
 -----
 Symbolic Z-matrix:
 Charge =  0 Multiplicity = 1

 SCF Done:  E(RHF) =  -215.888273556     A.U. after   13 cycles
 Normal termination of Gaussian 16 at Wed Apr  9 19:31:46 2025.
 Gaussian 16:  ES64L-G16RevC.01  3-Jul-2019

 ----------------------------------------------------------------------
 #t hf aug-cc-pvdz iop(5/13=1,5/36=2,99/5=2) pseudo=read geom=check gue
 ss=(read,tcheck) scf=(maxcycle=1)
 ----------------------------------------------------------------------
 -----
 title
 -----
 Structure from the checkpoint file:  "HB300SPXx10_1415_5.04_1.00_ethyne_methylfluoride_dimer_mol1.chk"
 Charge =  0 Multiplicity = 1

                         Standard orientation:
 ---------------------------------------------------------------------
 Center     Atomic      Atomic             Coordinates (Angstroms)
 Number     Number       Type             X           Y           Z
 ---------------------------------------------------------------------
      1          6           0        1.046676    1.308942    0.000000
      2          1           0        0.000000    1.116634    0.000000
      3          6           0        2.225974    1.509489    0.000000
      4          1           0        3.271009    1.694084    0.000000
      5          1           0       -1.279444   -2.207184    0.893893
      6          1           0       -1.279444   -2.207184   -0.893893
      7          1           0        0.096925   -1.498400    0.000000
      8          6           0       -0.978427   -1.664920    0.000000
      9          9           0       -1.619376   -0.424335    0.000000
 ---------------------------------------------------------------------

 SCF Done:  E(RHF) =  -216.106105202     A.U. after    2 cycles

 The electronic state is 1-A'.
 Alpha  occ. eigenvalues --  -26.45439 -11.32411 -11.24611 -11.24248  -1.57255
 Alpha  occ. eigenvalues --   -1.03088  -0.95766  -0.76533  -0.70177  -0.69067
 Alpha  occ. eigenvalues --   -0.67670  -0.66663  -0.53339  -0.53291  -0.41658
 Alpha  occ. eigenvalues --   -0.41609
 Alpha virt. eigenvalues --    0.03449   0.03955   0.05288   0.05566   0.06799
 Alpha virt. eigenvalues --    0.10820   0.11370   0.12131   0.12702   0.14406
 Alpha virt. eigenvalues --    0.14887   0.15771   0.16990   0.17398   0.18600

 Mulliken charges:
               1
     1  C    0.321835
     2  H   -0.187535
     3  C    0.128992
     4  H   -0.249484
     5  H    0.105767
     6  H    0.105767
     7  H    0.082559
     8  C    0.375972
     9  F   -0.683871
 Sum of Mulliken charges =  -0.00000

 Dipole moment (field-independent basis, Debye):
    X=              0.6878    Y=             -1.8891    Z=              0.0000  Tot=              2.0104

 Test job not archived.
 1\1\GINC-SE229\SP\RHF\Aug-CC-pVDZ\C3H5F1\OHZDE\09-Apr-2025\0\\#t hf au
 g-cc-pvdz iop(5/13=1,5/36=2,99/5=2) pseudo=read geom=check guess=(read
 ,tcheck) scf=(maxcycle=1)\\title\\0,1\C,0,0.31595013,-1.6374503,0.\H,0
 ,0.81540337,-0.69773821,0.\C,0,-0.25942719,-2.68621438,0.\H,0,-0.76390
 634,-3.61984886,0.\H,0,-0.99464991,2.36958159,0.8938929\H,0,-0.9946499
 1,2.36958159,-0.8938929\H,0,-1.29414663,0.85067765,0.\C,0,-0.75667096,
 1.79684416,0.\F,0,0.61368398,1.52853041,0.\\Version=ES64L-G16RevC.01\S
 tate=1-A'\HF=-216.1061052\RMSD=2.012e-02\Dipole=-0.750543,0.2496303,0.

 Normal termination of Gaussian 16 at Wed Apr  9 19:31:48 2025.
