 Gaussian 16, Revision C.01,

 ----------------------------------------------------------------------
 #t hf aug-cc-pvdz symm=none int=(grid=ultrafine) guess=(read,tcheck) s
 table=(opt,rrhf)
 ----------------------------------------------------------------------
 -----
 title
 -----
 Symbolic Z-matrix:
 Charge =  0 Multiplicity = 1

 SCF Done:  E(RHF) =  -630.508134317     A.U. after   14 cycles

 1\1\GINC-SE029\Stability\RHF\Aug-CC-pVDZ\C6H10S1\OHZDE\09-Apr-2025\0\\
 #t hf aug-cc-pvdz symm=none int=(grid=ultrafine) guess=(read,tcheck) s
 table=(opt,rrhf)\\title\\0,1\C,0,2.59090187,-0.04968862,0.43961338\H,0
 ,1.93323189,0.27193926,-0.33858357\C,0,3.30609004,-0.41751171,1.325807
 27\H,0,3.94715573,-0.74121457,2.10714096\H,0,0.40806019,-1.69149499,-0
 .47797148\H,0,-1.06659996,-1.73832799,-1.45345247\H,0,-1.31445157,-1.9
 9787214,1.19920089\H,0,-1.62965334,1.79801271,0.2764175\H,0,-2.4114887
 5,-0.89741548,0.3671261\H,0,0.08219918,1.98865211,0.67066752\H,0,-1.42

 Normal termination of Gaussian 16 at Wed Apr  9 19:22:20 2025.
 Gaussian 16:  ES64L-G16RevC.01  3-Jul-2019

 ----------------------------------------------------------------------
 #t hf aug-cc-pvdz iop(5/13=1,5/36=2,99/5=2) pseudo=read geom=check gue
 ss=(read,tcheck) scf=(maxcycle=1)
 ----------------------------------------------------------------------
 -----
 title
 -----
 Structure from the checkpoint file:  "HB300SPXx10_1003_4.04_0.90_ethyne_tetrahydrothiophene_dimer_mol1.chk"
 Charge =  0 Multiplicity = 1

                         Standard orientation:
 ---------------------------------------------------------------------
 Center     Atomic      Atomic             Coordinates (Angstroms)
 Number     Number       Type             X           Y           Z
 ---------------------------------------------------------------------
      1          6           0       -2.416438   -0.405147   -0.057987
      2          1           0       -1.548363   -1.026329   -0.011686
      3          6           0       -3.372772    0.312398   -0.109764
      4          1           0       -4.225965    0.941836   -0.155607
      5          1           0       -0.139385    0.039061   -1.766786
      6          1           0        1.550091   -0.382216   -2.077551
      7          1           0        1.010686    2.117976   -1.287964
      8          1           0        1.752077   -0.064863    1.881448
      9          1           0        2.350218    1.274005   -0.513231
     10          1           0        0.009852   -0.276668    2.086405
     11          1           0        0.926760    2.133601    1.316002
     12          1           0       -0.508414    1.470948    0.539168
     13         16           0        0.796307   -1.294060    0.029777
     14          6           0        0.849178   -0.045830   -1.318440
     15          6           0        1.269041    1.265453   -0.659472
     16          6           0        0.559700    1.318030    0.692785
     17          6           0        0.791547   -0.031969    1.371773
 ---------------------------------------------------------------------

 SCF Done:  E(RHF) =  -630.821836818     A.U. after    2 cycles

 The electronic state is 1-A.
 Alpha  occ. eigenvalues --  -93.93590 -11.26478 -11.26429 -11.24175 -11.24168
 Alpha  occ. eigenvalues --  -11.23889 -11.23726  -8.21737  -6.19534  -6.19417
 Alpha  occ. eigenvalues --   -6.19205  -1.14180  -1.02836  -0.99274  -0.98802
 Alpha  occ. eigenvalues --   -0.80215  -0.80079  -0.76147  -0.68994  -0.66257
 Alpha  occ. eigenvalues --   -0.65232  -0.61030  -0.55787  -0.51737  -0.50408
 Alpha  occ. eigenvalues --   -0.49046  -0.49015  -0.43576  -0.41321  -0.41230
 Alpha  occ. eigenvalues --   -0.34757
 Alpha virt. eigenvalues --    0.03195   0.03490   0.03788   0.04570   0.05299
 Alpha virt. eigenvalues --    0.06327   0.06567   0.06837   0.07925   0.08727
 Alpha virt. eigenvalues --    0.10411   0.11459   0.12632   0.13511   0.14148

 Mulliken charges:
               1
     1  C    0.615637
     2  H   -0.099698
     3  C   -0.097619
     4  H   -0.309311
     5  H    0.115431
     6  H    0.141491
     7  H    0.128913
     8  H    0.113983
     9  H    0.096722
    10  H    0.121278
    11  H    0.144628
    12  H    0.107724
    13  S    0.254532
    14  C   -0.404823
    15  C   -0.247581
    16  C   -0.299758
    17  C   -0.381550
 Sum of Mulliken charges =  -0.00000

 Dipole moment (field-independent basis, Debye):
    X=              0.4859    Y=              2.3222    Z=             -0.0015  Tot=              2.3725

 Test job not archived.
 1\1\GINC-SE029\SP\RHF\Aug-CC-pVDZ\C6H10S1\OHZDE\09-Apr-2025\0\\#t hf a
 ug-cc-pvdz iop(5/13=1,5/36=2,99/5=2) pseudo=read geom=check guess=(rea
 d,tcheck) scf=(maxcycle=1)\\title\\0,1\C,0,2.59090187,-0.04968862,0.43
 961338\H,0,1.93323189,0.27193926,-0.33858357\C,0,3.30609004,-0.4175117
 1,1.32580727\H,0,3.94715573,-0.74121457,2.10714096\H,0,0.40806019,-1.6
 9149499,-0.47797148\H,0,-1.06659996,-1.73832799,-1.45345247\H,0,-1.314
 45157,-1.99787214,1.19920089\H,0,-1.62965334,1.79801271,0.2764175\H,0,
 -2.41148875,-0.89741548,0.3671261\H,0,0.08219918,1.98865211,0.67066752

 Normal termination of Gaussian 16 at Wed Apr  9 19:22:27 2025.
