 Gaussian 16, Revision C.01,

 ----------------------------------------------------------------------
 #t hf aug-cc-pvdz symm=none int=(grid=ultrafine) guess=(read,tcheck) s
 table=(opt,rrhf)
 ----------------------------------------------------------------------
 -----
 title
 -----
 Symbolic Z-matrix:
 Charge =  0 Multiplicity = 1

 SCF Done:  E(RHF) =  -215.887713991     A.U. after   13 cycles
 Normal termination of Gaussian 16 at Wed Apr  9 19:31:46 2025.
 Gaussian 16:  ES64L-G16RevC.01  3-Jul-2019

 ----------------------------------------------------------------------
 #t hf aug-cc-pvdz iop(5/13=1,5/36=2,99/5=2) pseudo=read geom=check gue
 ss=(read,tcheck) scf=(maxcycle=1)
 ----------------------------------------------------------------------
 -----
 title
 -----
 Structure from the checkpoint file:  "HB300SPXx10_1414_5.04_0.95_ethyne_methylfluoride_dimer_mol1.chk"
 Charge =  0 Multiplicity = 1

                         Standard orientation:
 ---------------------------------------------------------------------
 Center     Atomic      Atomic             Coordinates (Angstroms)
 Number     Number       Type             X           Y           Z
 ---------------------------------------------------------------------
      1          6           0        1.053888    1.222019    0.000000
      2          1           0        0.000000    1.074260    0.000000
      3          6           0        2.240629    1.372389    0.000000
      4          1           0        3.292550    1.512511    0.000000
      5          1           0       -1.335050   -2.118779    0.893893
      6          1           0       -1.335050   -2.118779   -0.893893
      7          1           0        0.070132   -1.468985    0.000000
      8          6           0       -1.011313   -1.589764    0.000000
      9          9           0       -1.599089   -0.323121    0.000000
 ---------------------------------------------------------------------

 SCF Done:  E(RHF) =  -216.105509347     A.U. after    2 cycles

 The electronic state is 1-A'.
 Alpha  occ. eigenvalues --  -26.45580 -11.32444 -11.24490 -11.24114  -1.57434
 Alpha  occ. eigenvalues --   -1.03007  -0.95839  -0.76578  -0.70447  -0.69174
 Alpha  occ. eigenvalues --   -0.67559  -0.66546  -0.53440  -0.53386  -0.41576
 Alpha  occ. eigenvalues --   -0.41524
 Alpha virt. eigenvalues --    0.03448   0.03959   0.05268   0.05562   0.06831
 Alpha virt. eigenvalues --    0.10867   0.11406   0.12226   0.12841   0.14402
 Alpha virt. eigenvalues --    0.14891   0.15831   0.17098   0.17420   0.18609

 Mulliken charges:
               1
     1  C    0.329681
     2  H   -0.165907
     3  C    0.113124
     4  H   -0.255432
     5  H    0.106854
     6  H    0.106854
     7  H    0.085544
     8  C    0.373787
     9  F   -0.694505
 Sum of Mulliken charges =  -0.00000

 Dipole moment (field-independent basis, Debye):
    X=              0.5707    Y=             -1.9393    Z=              0.0000  Tot=              2.0215

 Test job not archived.
 1\1\GINC-SE224\SP\RHF\Aug-CC-pVDZ\C3H5F1\OHZDE\09-Apr-2025\0\\#t hf au
 g-cc-pvdz iop(5/13=1,5/36=2,99/5=2) pseudo=read geom=check guess=(read
 ,tcheck) scf=(maxcycle=1)\\title\\0,1\C,0,0.31595013,-1.6374503,0.\H,0
 ,0.81540337,-0.69773821,0.\C,0,-0.25942719,-2.68621438,0.\H,0,-0.76390
 634,-3.61984886,0.\H,0,-0.98456394,2.25826816,0.8938929\H,0,-0.9845639
 4,2.25826816,-0.8938929\H,0,-1.28406066,0.73936422,0.\C,0,-0.746585,1.
 68553072,0.\F,0,0.62376995,1.41721698,0.\\Version=ES64L-G16RevC.01\Sta
 te=1-A'\HF=-216.1055093\RMSD=2.028e-02\Dipole=-0.7493604,0.2664339,0.\

 Normal termination of Gaussian 16 at Wed Apr  9 19:31:48 2025.
