 Gaussian 16, Revision C.01,

 ----------------------------------------------------------------------
 #t hf aug-cc-pvdz symm=none int=(grid=ultrafine) guess=(read,tcheck) s
 table=(opt,rrhf)
 ----------------------------------------------------------------------
 -----
 title
 -----
 Symbolic Z-matrix:
 Charge =  0 Multiplicity = 1

 SCF Done:  E(RHF) =  -1102.15471040     A.U. after   13 cycles
 Normal termination of Gaussian 16 at Wed Apr  9 19:26:32 2025.
 Gaussian 16:  ES64L-G16RevC.01  3-Jul-2019

 ----------------------------------------------------------------------
 #t hf aug-cc-pvdz iop(5/13=1,5/36=2,99/5=2) pseudo=read geom=check gue
 ss=(read,tcheck) scf=(maxcycle=1)
 ----------------------------------------------------------------------
 -----
 title
 -----
 Structure from the checkpoint file:  "HB300SPXx10_1119_4.15_1.50_aceticacid_dimethyldisulfide_dimer_mol1.chk"
 Charge =  0 Multiplicity = 1

                         Standard orientation:
 ---------------------------------------------------------------------
 Center     Atomic      Atomic             Coordinates (Angstroms)
 Number     Number       Type             X           Y           Z
 ---------------------------------------------------------------------
      1          6           0        3.493888   -0.058077   -0.020391
      2          8           0        3.034835    1.052251   -0.139137
      3          8           0        2.740867   -1.169246   -0.021182
      4          1           0        1.802481   -0.911395   -0.145128
      5          6           0        4.954703   -0.372687    0.144067
      6          1           0        5.529025    0.546790    0.160658
      7          1           0        5.111346   -0.930218    1.066404
      8          1           0        5.287976   -1.006188   -0.676982
      9          1           0       -5.016880   -0.974480    0.306590
     10          1           0       -4.395472   -0.285275   -1.208551
     11          1           0       -4.462377    0.709450    0.271591
     12          1           0       -0.944697    1.398676    1.538310
     13          1           0       -2.103786    2.358969    0.576819
     14          1           0       -0.364258    2.357754    0.164687
     15          6           0       -4.292695   -0.286519   -0.127507
     16         16           0       -2.652802   -0.912311    0.354298
     17         16           0       -1.373671    0.372947   -0.606603
     18          6           0       -1.193465    1.767565    0.548002
 ---------------------------------------------------------------------

 SCF Done:  E(RHF) =  -1102.59582785     A.U. after    2 cycles

 The electronic state is 1-A.
 Alpha  occ. eigenvalues --  -93.96956 -93.96926 -20.59783 -20.53347 -11.39329
 Alpha  occ. eigenvalues --  -11.27059 -11.26735 -11.25206  -8.24959  -8.24927
 Alpha  occ. eigenvalues --   -6.22780  -6.22728  -6.22550  -6.22530  -6.22331
 Alpha  occ. eigenvalues --   -6.22304  -1.54466  -1.44756  -1.11892  -1.02958
 Alpha  occ. eigenvalues --   -1.02741  -0.92014  -0.82513  -0.81007  -0.70555
 Alpha  occ. eigenvalues --   -0.68256  -0.64961  -0.62053  -0.60847  -0.60485
 Alpha  occ. eigenvalues --   -0.58944  -0.57996  -0.57188  -0.55953  -0.54182
 Alpha  occ. eigenvalues --   -0.50064  -0.47120  -0.45004  -0.44216  -0.36773
 Alpha  occ. eigenvalues --   -0.35918
 Alpha virt. eigenvalues --    0.03556   0.03801   0.04403   0.04796   0.05545
 Alpha virt. eigenvalues --    0.05760   0.05970   0.07039   0.07542   0.08225
 Alpha virt. eigenvalues --    0.09765   0.10340   0.11150   0.12023   0.13686

 Mulliken charges:
               1
     1  C    1.886686
     2  O   -1.183634
     3  O   -1.229777
     4  H    0.445815
     5  C   -0.551822
     6  H    0.180816
     7  H    0.220465
     8  H    0.225838
     9  H    0.169527
    10  H    0.220159
    11  H    0.196272
    12  H    0.223797
    13  H    0.162203
    14  H    0.189437
    15  C   -0.731349
    16  S    0.122477
    17  S    0.155345
    18  C   -0.702255
 Sum of Mulliken charges =  -0.00000

 Dipole moment (field-independent basis, Debye):
    X=             -0.8389    Y=              0.1257    Z=              0.7806  Tot=              1.1527

 Test job not archived.
 1\1\GINC-SE115\SP\RHF\Aug-CC-pVDZ\C4H10O2S2\OHZDE\09-Apr-2025\0\\#t hf
  aug-cc-pvdz iop(5/13=1,5/36=2,99/5=2) pseudo=read geom=check guess=(r
 ead,tcheck) scf=(maxcycle=1)\\title\\0,1\C,0,2.51189353,-1.3688008,0.0
 1480743\O,0,1.76216303,-1.97148126,0.7444221\O,0,2.20838592,-0.1819016
 3,-0.53372859\H,0,1.31541707,0.08523139,-0.22768185\C,0,3.88111819,-1.
 83853704,-0.39087365\H,0,4.08390343,-2.80677129,0.05292751\H,0,3.94369
 33,-1.90220497,-1.47628393\H,0,4.62800978,-1.11523999,-0.06604891\H,0,
 -4.91342991,2.89792805,-0.18387502\H,0,-4.15166782,2.7945492,1.4179473

 Normal termination of Gaussian 16 at Wed Apr  9 19:26:39 2025.
