 Gaussian 16, Revision C.01,

 ----------------------------------------------------------------------
 #t hf aug-cc-pvdz symm=none int=(grid=ultrafine) guess=(read,tcheck) s
 table=(opt,rrhf)
 ----------------------------------------------------------------------
 -----
 title
 -----
 Symbolic Z-matrix:
 Charge =  0 Multiplicity = 1

 SCF Done:  E(RHF) =  -648.897413430     A.U. after   13 cycles
 Normal termination of Gaussian 16 at Wed Apr  9 19:25:40 2025.
 Gaussian 16:  ES64L-G16RevC.01  3-Jul-2019

 ----------------------------------------------------------------------
 #t hf aug-cc-pvdz iop(5/13=1,5/36=2,99/5=2) pseudo=read geom=check gue
 ss=(read,tcheck) scf=(maxcycle=1)
 ----------------------------------------------------------------------
 -----
 title
 -----
 Structure from the checkpoint file:  "HB300SPXx10_1081_4.12_0.80_methylamine_tetrahydrothiophene_dimer_mol1.chk"
 Charge =  0 Multiplicity = 1

                         Standard orientation:
 ---------------------------------------------------------------------
 Center     Atomic      Atomic             Coordinates (Angstroms)
 Number     Number       Type             X           Y           Z
 ---------------------------------------------------------------------
      1          7           0       -1.867375   -0.292622   -0.857999
      2          1           0       -1.207400   -0.892260   -0.373836
      3          1           0       -2.379692   -0.874559   -1.507171
      4          6           0       -2.777690    0.337837    0.096510
      5          1           0       -3.492870    0.961939   -0.438468
      6          1           0       -3.342614   -0.359273    0.726468
      7          1           0       -2.209878    0.994151    0.756144
      8          1           0        1.195297    0.603906    2.074049
      9          1           0       -0.545348    0.516786    1.788872
     10          1           0        0.840959    2.453543    0.550879
     11          1           0        0.531674   -0.625049   -1.783582
     12          1           0       -0.351779    1.541556   -0.380888
     13          1           0        2.158465   -1.151734   -1.318192
     14          1           0        1.732124    1.468733   -1.687822
     15          1           0        2.640943    0.963117   -0.264212
     16         16           0        0.640319   -1.206121    0.565354
     17          6           0        0.430317    0.463335    1.312973
     18          6           0        0.585441    1.464586    0.169544
     19          6           0        1.667678    0.908646   -0.754854
     20          6           0        1.303692   -0.550163   -1.021157
 ---------------------------------------------------------------------

 SCF Done:  E(RHF) =  -649.239391664     A.U. after    2 cycles

 The electronic state is 1-A.
 Alpha  occ. eigenvalues --  -93.93020 -15.46136 -11.26045 -11.25736 -11.24462
 Alpha  occ. eigenvalues --  -11.23591 -11.23044  -8.21226  -6.19011  -6.18897
 Alpha  occ. eigenvalues --   -6.18701  -1.16382  -1.13297  -0.98845  -0.98402
 Alpha  occ. eigenvalues --   -0.89955  -0.79681  -0.79550  -0.69882  -0.65344
 Alpha  occ. eigenvalues --   -0.64656  -0.62574  -0.60385  -0.57446  -0.54928
 Alpha  occ. eigenvalues --   -0.52854  -0.51009  -0.49749  -0.48496  -0.48315
 Alpha  occ. eigenvalues --   -0.43253  -0.41353  -0.34096
 Alpha virt. eigenvalues --    0.03565   0.03772   0.03898   0.04187   0.05669
 Alpha virt. eigenvalues --    0.05810   0.05883   0.06653   0.07387   0.08716
 Alpha virt. eigenvalues --    0.09127   0.09920   0.10334   0.11963   0.13305

 Mulliken charges:
               1
     1  N    0.066679
     2  H   -0.055361
     3  H    0.361787
     4  C   -0.364308
     5  H    0.071552
     6  H    0.074758
     7  H    0.016256
     8  H    0.103703
     9  H    0.157300
    10  H    0.136875
    11  H    0.192452
    12  H    0.212110
    13  H    0.120405
    14  H    0.115118
    15  H    0.104427
    16  S    0.161429
    17  C   -0.488402
    18  C   -0.272704
    19  C   -0.329745
    20  C   -0.384331
 Sum of Mulliken charges =  -0.00000

 Dipole moment (field-independent basis, Debye):
    X=             -0.0062    Y=              1.0908    Z=             -0.1760  Tot=              1.1049

 Test job not archived.
 1\1\GINC-SE056\SP\RHF\Aug-CC-pVDZ\C5H13N1S1\OHZDE\09-Apr-2025\0\\#t hf
  aug-cc-pvdz iop(5/13=1,5/36=2,99/5=2) pseudo=read geom=check guess=(r
 ead,tcheck) scf=(maxcycle=1)\\title\\0,1\N,0,-0.48023551,2.04199658,1.
 33183501\H,0,-0.98136805,1.22913012,0.98881982\H,0,-1.14375731,2.80345
 765,1.38144373\C,0,0.08991425,1.76981847,2.65020044\H,0,0.60698078,2.6
 5693888,3.01468146\H,0,-0.63523497,1.46399211,3.41346792\H,0,0.8338340
 5,0.97768014,2.5643137\H,0,0.87882826,-1.95557088,0.35560396\H,0,0.589
 0062,-0.81296124,1.67059715\H,0,2.60705799,-0.30150184,-0.02391735\H,0

 Normal termination of Gaussian 16 at Wed Apr  9 19:25:50 2025.
