 Gaussian 16, Revision C.01,

 ----------------------------------------------------------------------
 #t hf aug-cc-pvdz symm=none int=(grid=ultrafine) guess=(read,tcheck) s
 table=(opt,rrhf)
 ----------------------------------------------------------------------
 -----
 title
 -----
 Symbolic Z-matrix:
 Charge =  0 Multiplicity = 1

 SCF Done:  E(RHF) =  -1091.83676170     A.U. after   14 cycles
 Normal termination of Gaussian 16 at Wed Apr  9 19:32:18 2025.
 Gaussian 16:  ES64L-G16RevC.01  3-Jul-2019

 ----------------------------------------------------------------------
 #t hf aug-cc-pvdz iop(5/13=1,5/36=2,99/5=2) pseudo=read geom=check gue
 ss=(read,tcheck) scf=(maxcycle=1)
 ----------------------------------------------------------------------
 -----
 title
 -----
 Structure from the checkpoint file:  "HB300SPXx10_1401_5.03_0.80_dimethylsulfoxide_phosphineF2_dimer_mol1.chk"
 Charge =  0 Multiplicity = 1

                         Standard orientation:
 ---------------------------------------------------------------------
 Center     Atomic      Atomic             Coordinates (Angstroms)
 Number     Number       Type             X           Y           Z
 ---------------------------------------------------------------------
      1          1           0        1.763465    1.680216   -1.479225
      2          1           0        2.615092    1.799606    0.079374
      3          1           0        0.818267    1.790421    0.030572
      4          1           0        1.497891   -1.597997    1.677802
      5          1           0        0.723950    0.005402    1.800854
      6          6           0        1.730528    1.416142   -0.425647
      7         16           0        1.739943   -0.393289   -0.342945
      8          8           0        0.441113   -0.858539   -0.922729
      9          6           0        1.599344   -0.538853    1.457428
     10          1           0        2.508472   -0.150860    1.912705
     11         15           0       -1.560087   -0.353713   -0.096212
     12          9           0       -3.107052    0.059069    0.116960
     13          9           0       -0.932230    1.011985    0.500853
     14          1           0       -1.519511    0.036616   -1.460950
 ---------------------------------------------------------------------

 SCF Done:  E(RHF) =  -1092.28739401     A.U. after    2 cycles

 The electronic state is 1-A.
 Alpha  occ. eigenvalues --  -94.08999 -84.37001 -26.46162 -26.42814 -20.52816
 Alpha  occ. eigenvalues --  -11.28671 -11.28178  -8.35970  -6.82542  -6.33840
 Alpha  occ. eigenvalues --   -6.33666  -6.33458  -4.35314  -4.34809  -4.33695
 Alpha  occ. eigenvalues --   -1.59508  -1.53875  -1.47707  -1.11081  -0.99837
 Alpha  occ. eigenvalues --   -0.87597  -0.84347  -0.70449  -0.68579  -0.67671
 Alpha  occ. eigenvalues --   -0.65918  -0.65279  -0.64059  -0.61975  -0.61101
 Alpha  occ. eigenvalues --   -0.59989  -0.57947  -0.57043  -0.54778  -0.52254
 Alpha  occ. eigenvalues --   -0.46037  -0.40145  -0.32823
 Alpha virt. eigenvalues --    0.02646   0.03636   0.04669   0.05228   0.06538
 Alpha virt. eigenvalues --    0.07070   0.07732   0.08475   0.09690   0.11284
 Alpha virt. eigenvalues --    0.12310   0.12491   0.13436   0.14739   0.15010

 Mulliken charges:
               1
     1  H    0.189480
     2  H    0.187215
     3  H    0.216007
     4  H    0.210651
     5  H    0.206524
     6  C   -0.579811
     7  S    1.597565
     8  O   -1.428796
     9  C   -0.603637
    10  H    0.183765
    11  P    1.521697
    12  F   -0.788231
    13  F   -0.926916
    14  H    0.014487
 Sum of Mulliken charges =  -0.00000

 Dipole moment (field-independent basis, Debye):
    X=              5.2828    Y=              1.3508    Z=              1.2489  Tot=              5.5939

 Test job not archived.
 1\1\GINC-SE056\SP\RHF\Aug-CC-pVDZ\C2H7F2O1P1S1\OHZDE\09-Apr-2025\0\\#t
  hf aug-cc-pvdz iop(5/13=1,5/36=2,99/5=2) pseudo=read geom=check guess
 =(read,tcheck) scf=(maxcycle=1)\\title\\0,1\H,0,1.67395499,0.82417178,
 -3.38423362\H,0,0.49124302,-0.02078366,-4.41184902\H,0,0.89589517,-0.6
 6534236,-2.78340018\H,0,-2.718683,0.46280377,-2.2188292\H,0,-1.5421980
 9,-0.87905323,-2.20106353\C,0,0.76564588,0.22768029,-3.38836814\S,0,-0
 .5351395,1.25679703,-2.66046249\O,0,-0.17783951,1.44910918,-1.22000404
 \C,0,-1.85989706,0.022286,-2.71790313\H,0,-2.10168806,-0.18449539,-3.7

 Normal termination of Gaussian 16 at Wed Apr  9 19:32:23 2025.
