 Gaussian 16, Revision C.01,

 ----------------------------------------------------------------------
 #t hf aug-cc-pvdz symm=none int=(grid=ultrafine) guess=(read,tcheck) s
 table=(opt,rrhf)
 ----------------------------------------------------------------------
 -----
 title
 -----
 Symbolic Z-matrix:
 Charge =  0 Multiplicity = 1

 SCF Done:  E(RHF) =  -800.726905127     A.U. after   13 cycles
 Normal termination of Gaussian 16 at Wed Apr  9 19:27:56 2025.
 Gaussian 16:  ES64L-G16RevC.01  3-Jul-2019

 ----------------------------------------------------------------------
 #t hf aug-cc-pvdz iop(5/13=1,5/36=2,99/5=2) pseudo=read geom=check gue
 ss=(read,tcheck) scf=(maxcycle=1)
 ----------------------------------------------------------------------
 -----
 title
 -----
 Structure from the checkpoint file:  "HB300SPXx10_1106_4.14_1.05_Nmethylacetamide_tetrahydrothiophene_dimer_mol1.chk"
 Charge =  0 Multiplicity = 1

                         Standard orientation:
 ---------------------------------------------------------------------
 Center     Atomic      Atomic             Coordinates (Angstroms)
 Number     Number       Type             X           Y           Z
 ---------------------------------------------------------------------
      1          6           0       -2.360973   -1.706954   -0.151554
      2          1           0       -2.262267   -2.196631    0.815936
      3          1           0       -1.505045   -1.956187   -0.775376
      4          1           0       -3.266012   -2.090756   -0.618505
      5          6           0       -2.528728   -0.217009    0.070772
      6          8           0       -3.453373    0.233661    0.727256
      7          7           0       -1.591603    0.567308   -0.519835
      8          1           0       -0.792873    0.127905   -0.955742
      9          6           0       -1.600483    2.007378   -0.376284
     10          1           0       -2.626925    2.344844   -0.265892
     11          1           0       -1.042167    2.337891    0.503665
     12          1           0       -1.163464    2.465301   -1.261242
     13          1           0        1.478938    1.659631   -0.837212
     14          1           0        3.131081    1.183574   -1.236545
     15          1           0        2.575295    1.888132    1.299391
     16          1           0        2.329707   -1.969969    0.898245
     17          1           0        3.588726    0.477692    1.010345
     18          1           0        0.572347   -1.841789    0.772329
     19          1           0        1.809662   -0.266748    2.547424
     20          1           0        0.576704    0.447031    1.513161
     21         16           0        1.675358   -0.745505   -1.083804
     22          6           0        2.265738    0.938623   -0.627178
     23          6           0        2.588557    0.888362    0.865665
     24          6           0        1.555796   -0.032163    1.513829
     25          6           0        1.506555   -1.298617    0.663362
 ---------------------------------------------------------------------

 SCF Done:  E(RHF) =  -801.216993995     A.U. after    2 cycles

 The electronic state is 1-A.
 Alpha  occ. eigenvalues --  -93.94703 -20.49324 -15.51525 -11.34578 -11.27567
 Alpha  occ. eigenvalues --  -11.27439 -11.26384 -11.25193 -11.25013 -11.23894
 Alpha  occ. eigenvalues --   -8.22816  -6.20619  -6.20501  -6.20282  -1.44339
 Alpha  occ. eigenvalues --   -1.23209  -1.15174  -1.01903  -1.00333  -0.99757
 Alpha  occ. eigenvalues --   -0.94100  -0.81559  -0.81158  -0.80857  -0.70228
 Alpha  occ. eigenvalues --   -0.67926  -0.66592  -0.66202  -0.64369  -0.62119
 Alpha  occ. eigenvalues --   -0.58979  -0.58215  -0.56861  -0.56280  -0.55409
 Alpha  occ. eigenvalues --   -0.52787  -0.51469  -0.50536  -0.50033  -0.49916
 Alpha  occ. eigenvalues --   -0.44554  -0.41313  -0.40534  -0.35792
 Alpha virt. eigenvalues --    0.02879   0.02905   0.03577   0.03888   0.04910
 Alpha virt. eigenvalues --    0.05399   0.05523   0.06249   0.06660   0.07417
 Alpha virt. eigenvalues --    0.08145   0.08517   0.09595   0.09986   0.11170

 Mulliken charges:
               1
     1  C   -0.313162
     2  H    0.249359
     3  H    0.097174
     4  H    0.131731
     5  C    0.440343
     6  O   -1.386852
     7  N    0.879929
     8  H    0.079921
     9  C   -0.387444
    10  H   -0.001497
    11  H    0.143940
    12  H    0.119389
    13  H    0.066999
    14  H    0.161846
    15  H    0.141366
    16  H    0.111242
    17  H    0.098536
    18  H    0.070416
    19  H    0.152819
    20  H    0.056764
    21  S    0.332784
    22  C   -0.482514
    23  C   -0.301707
    24  C   -0.198918
    25  C   -0.262462
 Sum of Mulliken charges =  -0.00000

 Dipole moment (field-independent basis, Debye):
    X=              4.1737    Y=              0.2069    Z=              0.0449  Tot=              4.1790

 Test job not archived.
 1\1\GINC-SE118\SP\RHF\Aug-CC-pVDZ\C7H15N1O1S1\OHZDE\09-Apr-2025\0\\#t
 hf aug-cc-pvdz iop(5/13=1,5/36=2,99/5=2) pseudo=read geom=check guess=
 (read,tcheck) scf=(maxcycle=1)\\title\\0,1\C,0,-2.35790997,-0.53076315
 ,1.51380969\H,0,-2.45888814,0.43106478,2.01406411\H,0,-1.4356415,-1.01
 232631,1.83224394\H,0,-3.20368729,-1.14467685,1.81747472\C,0,-2.435185
 38,-0.3119418,0.01592702\O,0,-3.41358688,0.19433185,-0.50891479\N,0,-1
 .3525984,-0.72916607,-0.68842032\H,0,-0.53292762,-1.03795931,-0.184588
 74\C,0,-1.26500492,-0.56327277,-2.12344447\H,0,-2.26409386,-0.61429593

 Normal termination of Gaussian 16 at Wed Apr  9 19:28:13 2025.
