 Gaussian 16, Revision C.01,

 ----------------------------------------------------------------------
 #t hf aug-cc-pvdz symm=none int=(grid=ultrafine) guess=(read,tcheck) s
 table=(opt,rrhf)
 ----------------------------------------------------------------------
 -----
 title
 -----
 Symbolic Z-matrix:
 Charge =  0 Multiplicity = 1

 SCF Done:  E(RHF) =  -1166.69836995     A.U. after   13 cycles
 Normal termination of Gaussian 16 at Wed Apr  9 19:31:17 2025.
 Gaussian 16:  ES64L-G16RevC.01  3-Jul-2019

 ----------------------------------------------------------------------
 #t hf aug-cc-pvdz iop(5/13=1,5/36=2,99/5=2) pseudo=read geom=check gue
 ss=(read,tcheck) scf=(maxcycle=1)
 ----------------------------------------------------------------------
 -----
 title
 -----
 Structure from the checkpoint file:  "HB300SPXx10_1392_5.02_0.85_dimethylsulfone_phosphineF2_dimer_mol1.chk"
 Charge =  0 Multiplicity = 1

                         Standard orientation:
 ---------------------------------------------------------------------
 Center     Atomic      Atomic             Coordinates (Angstroms)
 Number     Number       Type             X           Y           Z
 ---------------------------------------------------------------------
      1          1           0        2.147494    0.484510    2.079746
      2          1           0        1.382081   -1.124317    2.010462
      3          1           0        0.366817    0.338550    1.888195
      4          1           0        0.402030    1.886816   -0.364431
      5          1           0        1.495711    1.499503   -1.721499
      6          1           0        2.179650    2.101310   -0.189910
      7          8           0        2.870642   -0.633943   -0.399877
      8         16           0        1.535309   -0.180504   -0.112244
      9          8           0        0.410165   -0.914091   -0.653626
     10          6           0        1.333820   -0.097423    1.656961
     11          6           0        1.384008    1.514857   -0.640138
     12         15           0       -1.948164   -0.443943   -0.051016
     13          9           0       -3.509428   -0.071569   -0.048810
     14          9           0       -1.389703    1.019680    0.342147
     15          1           0       -1.777505   -0.292483   -1.454376
 ---------------------------------------------------------------------

 SCF Done:  E(RHF) =  -1167.22343370     A.U. after    2 cycles

 The electronic state is 1-A.
 Alpha  occ. eigenvalues --  -94.20077 -84.39728 -26.48343 -26.46311 -20.55020
 Alpha  occ. eigenvalues --  -20.54170 -11.29379 -11.29003  -8.45577  -6.85353
 Alpha  occ. eigenvalues --   -6.43700  -6.43454  -6.43376  -4.38180  -4.37593
 Alpha  occ. eigenvalues --   -4.36505  -1.61859  -1.57560  -1.56943  -1.45420
 Alpha  occ. eigenvalues --   -1.10601  -1.02676  -0.88112  -0.84511  -0.72302
 Alpha  occ. eigenvalues --   -0.71231  -0.70774  -0.69850  -0.69429  -0.67538
 Alpha  occ. eigenvalues --   -0.64628  -0.63348  -0.62562  -0.62327  -0.60247
 Alpha  occ. eigenvalues --   -0.59449  -0.56247  -0.50974  -0.50711  -0.47397
 Alpha  occ. eigenvalues --   -0.45380  -0.36748
 Alpha virt. eigenvalues --    0.02840   0.03901   0.04520   0.05209   0.06370
 Alpha virt. eigenvalues --    0.06617   0.07214   0.09272   0.09462   0.10742
 Alpha virt. eigenvalues --    0.12568   0.13635   0.13951   0.14368   0.14965

 Mulliken charges:
               1
     1  H    0.210209
     2  H    0.265251
     3  H    0.213452
     4  H    0.221857
     5  H    0.245533
     6  H    0.211885
     7  O   -1.488842
     8  S    3.014736
     9  O   -1.513411
    10  C   -0.642065
    11  C   -0.613015
    12  P    1.493657
    13  F   -0.789077
    14  F   -0.899812
    15  H    0.069640
 Sum of Mulliken charges =  -0.00000

 Dipole moment (field-independent basis, Debye):
    X=              1.0505    Y=              2.8525    Z=              1.8389  Tot=              3.5528

 Test job not archived.
 1\1\GINC-SE340\SP\RHF\Aug-CC-pVDZ\C2H7F2O2P1S1\OHZDE\09-Apr-2025\0\\#t
  hf aug-cc-pvdz iop(5/13=1,5/36=2,99/5=2) pseudo=read geom=check guess
 =(read,tcheck) scf=(maxcycle=1)\\title\\0,1\H,0,1.82037896,-1.1252997,
 2.45423408\H,0,2.45327614,-0.04590354,1.18406648\H,0,1.26048817,-1.302
 78481,0.75605091\H,0,-1.35656486,-1.06874241,1.510339\H,0,-1.8999986,0
 .31018714,2.5058364\H,0,-0.84910966,-0.93302114,3.2309401\O,0,0.704774
 22,1.412934,2.93921594\S,0,0.30796869,0.58975017,1.82729483\O,0,-0.016
 49706,1.22000253,0.56448154\C,0,1.58998555,-0.61149627,1.52558836\C,0,

 Normal termination of Gaussian 16 at Wed Apr  9 19:31:22 2025.
