 Gaussian 16, Revision C.01,

 ----------------------------------------------------------------------
 #t hf aug-cc-pvdz symm=none int=(grid=ultrafine) guess=(read,tcheck) s
 table=(opt,rrhf)
 ----------------------------------------------------------------------
 -----
 title
 -----
 Symbolic Z-matrix:
 Charge =  0 Multiplicity = 1

 SCF Done:  E(RHF) =  -571.986092327     A.U. after   12 cycles
 Normal termination of Gaussian 16 at Wed Apr  9 19:30:05 2025.
 Gaussian 16:  ES64L-G16RevC.01  3-Jul-2019

 ----------------------------------------------------------------------
 #t hf aug-cc-pvdz iop(5/13=1,5/36=2,99/5=2) pseudo=read geom=check gue
 ss=(read,tcheck) scf=(maxcycle=1)
 ----------------------------------------------------------------------
 -----
 title
 -----
 Structure from the checkpoint file:  "HB300SPXx10_133_1.14_0.90_sulfane_trimethylamine_dimer_mol1.chk"
 Charge =  0 Multiplicity = 1

                         Standard orientation:
 ---------------------------------------------------------------------
 Center     Atomic      Atomic             Coordinates (Angstroms)
 Number     Number       Type             X           Y           Z
 ---------------------------------------------------------------------
      1          1           0       -0.940364    0.034121    0.000000
      2          1           0       -2.565635   -1.075345    0.000000
      3         16           0       -2.295959    0.237861    0.000000
      4          1           0        2.337912   -0.826033    1.303193
      5          1           0        0.843031   -0.265983    2.080506
      6          1           0        0.854481   -1.793856    1.197590
      7          1           0        0.854481   -1.793856   -1.197590
      8          1           0        2.337912   -0.826033   -1.303193
      9          1           0        0.843031   -0.265983   -2.080506
     10          1           0        2.337700    1.419016    0.000000
     11          1           0        0.848908    1.811226   -0.882789
     12          6           0        1.242721   -0.776519    1.205875
     13          7           0        0.823716   -0.082040    0.000000
     14          6           0        1.242721   -0.776519   -1.205875
     15          6           0        1.242721    1.309707    0.000000
     16          1           0        0.848908    1.811226    0.882789
 ---------------------------------------------------------------------

 SCF Done:  E(RHF) =  -572.242112153     A.U. after    2 cycles

 The electronic state is 1-A'.
 Alpha  occ. eigenvalues --  -93.91853 -15.50745 -11.26379 -11.26375 -11.26359
 Alpha  occ. eigenvalues --   -8.20068  -6.17949  -6.17824  -6.17610  -1.24588
 Alpha  occ. eigenvalues --   -0.98158  -0.97670  -0.97653  -0.83820  -0.69107
 Alpha  occ. eigenvalues --   -0.66989  -0.66962  -0.57234  -0.57126  -0.55905
 Alpha  occ. eigenvalues --   -0.54239  -0.53778  -0.53767  -0.48329  -0.38873
 Alpha  occ. eigenvalues --   -0.35754
 Alpha virt. eigenvalues --    0.03330   0.04282   0.04506   0.04731   0.05909
 Alpha virt. eigenvalues --    0.06130   0.06294   0.06918   0.07201   0.09892
 Alpha virt. eigenvalues --    0.10305   0.12495   0.13771   0.14626   0.14816

 Mulliken charges:
               1
     1  H    0.587128
     2  H    0.186547
     3  S   -0.597840
     4  H    0.197368
     5  H    0.117323
     6  H    0.114759
     7  H    0.114759
     8  H    0.197368
     9  H    0.117323
    10  H    0.175083
    11  H    0.118272
    12  C   -0.320233
    13  N   -0.461663
    14  C   -0.320233
    15  C   -0.344231
    16  H    0.118272
 Sum of Mulliken charges =   0.00000

 Dipole moment (field-independent basis, Debye):
    X=              3.2529    Y=             -1.0177    Z=              0.0000  Tot=              3.4084

 Test job not archived.
 1\1\GINC-SE219\SP\RHF\Aug-CC-pVDZ\C3H11N1S1\OHZDE\09-Apr-2025\0\\#t hf
  aug-cc-pvdz iop(5/13=1,5/36=2,99/5=2) pseudo=read geom=check guess=(r
 ead,tcheck) scf=(maxcycle=1)\\title\\0,1\H,0,0.06719299,0.97177334,0.\
 H,0,1.32304535,2.48678341,0.\S,0,-0.00955285,2.34044335,0.\H,0,0.61864
 261,-2.37230558,-1.30319342\H,0,0.20008867,-0.83180664,-2.08050641\H,0
 ,1.72026992,-0.98534356,-1.19759028\H,0,1.72026992,-0.98534356,1.19759
 028\H,0,0.61864261,-2.37230558,1.30319342\H,0,0.20008867,-0.83180664,2
 .08050641\H,0,-1.61665087,-2.16323915,0.\H,0,-1.86865891,-0.64441678,0

 Normal termination of Gaussian 16 at Wed Apr  9 19:30:08 2025.
