 Gaussian 16, Revision C.01,

 ----------------------------------------------------------------------
 #t hf aug-cc-pvdz symm=none int=(grid=ultrafine) guess=(read,tcheck) s
 table=(opt,rrhf)
 ----------------------------------------------------------------------
 -----
 title
 -----
 Symbolic Z-matrix:
 Charge =  0 Multiplicity = 1

 SCF Done:  E(RHF) =  -800.723267536     A.U. after   14 cycles
 Normal termination of Gaussian 16 at Wed Apr  9 19:28:10 2025.
 Gaussian 16:  ES64L-G16RevC.01  3-Jul-2019

 ----------------------------------------------------------------------
 #t hf aug-cc-pvdz iop(5/13=1,5/36=2,99/5=2) pseudo=read geom=check gue
 ss=(read,tcheck) scf=(maxcycle=1)
 ----------------------------------------------------------------------
 -----
 title
 -----
 Structure from the checkpoint file:  "HB300SPXx10_1104_4.14_0.95_Nmethylacetamide_tetrahydrothiophene_dimer_mol1.chk"
 Charge =  0 Multiplicity = 1

                         Standard orientation:
 ---------------------------------------------------------------------
 Center     Atomic      Atomic             Coordinates (Angstroms)
 Number     Number       Type             X           Y           Z
 ---------------------------------------------------------------------
      1          6           0       -2.292380   -1.674353   -0.149661
      2          1           0       -2.209730   -2.163583    0.819559
      3          1           0       -1.446260   -1.955445   -0.773320
      4          1           0       -3.210673   -2.028236   -0.614362
      5          6           0       -2.408101   -0.178673    0.067261
      6          8           0       -3.315872    0.306239    0.722894
      7          7           0       -1.444931    0.570462   -0.527110
      8          1           0       -0.662380    0.101995   -0.962096
      9          6           0       -1.403684    2.010493   -0.388921
     10          1           0       -2.417682    2.383784   -0.278862
     11          1           0       -0.833328    2.324678    0.489287
     12          1           0       -0.951949    2.449700   -1.275973
     13          1           0        1.429309    1.645714   -0.839227
     14          1           0        3.063525    1.111134   -1.238271
     15          1           0        2.535136    1.843920    1.295521
     16          1           0        2.155398   -2.004789    0.908981
     17          1           0        3.498713    0.398099    1.010821
     18          1           0        0.403416   -1.816162    0.784172
     19          1           0        1.696471   -0.278465    2.552268
     20          1           0        0.487960    0.473849    1.516463
     21         16           0        1.541893   -0.765684   -1.077028
     22          6           0        2.190831    0.898615   -0.627215
     23          6           0        2.513249    0.842696    0.865513
     24          6           0        1.449834   -0.039030    1.518035
     25          6           0        1.355798   -1.306146    0.672340
 ---------------------------------------------------------------------

 SCF Done:  E(RHF) =  -801.213414247     A.U. after    2 cycles

 The electronic state is 1-A.
 Alpha  occ. eigenvalues --  -93.94838 -20.49187 -15.51091 -11.34415 -11.27676
 Alpha  occ. eigenvalues --  -11.27522 -11.26290 -11.25253 -11.25001 -11.23822
 Alpha  occ. eigenvalues --   -8.22974  -6.20771  -6.20655  -6.20444  -1.44207
 Alpha  occ. eigenvalues --   -1.23014  -1.15292  -1.01858  -1.00423  -0.99943
 Alpha  occ. eigenvalues --   -0.94020  -0.81759  -0.81271  -0.80675  -0.70202
 Alpha  occ. eigenvalues --   -0.68065  -0.66646  -0.66082  -0.64225  -0.62223
 Alpha  occ. eigenvalues --   -0.58995  -0.58219  -0.56803  -0.56228  -0.55358
 Alpha  occ. eigenvalues --   -0.52856  -0.51528  -0.50443  -0.50159  -0.49900
 Alpha  occ. eigenvalues --   -0.44734  -0.41199  -0.40345  -0.36009
 Alpha virt. eigenvalues --    0.02855   0.02898   0.03549   0.03930   0.04891
 Alpha virt. eigenvalues --    0.05394   0.05543   0.06235   0.06724   0.07542
 Alpha virt. eigenvalues --    0.08299   0.08589   0.09712   0.10175   0.11169

 Mulliken charges:
               1
     1  C   -0.305979
     2  H    0.267767
     3  H    0.109252
     4  H    0.094161
     5  C    0.450440
     6  O   -1.398569
     7  N    0.898203
     8  H    0.125048
     9  C   -0.388263
    10  H   -0.039864
    11  H    0.142960
    12  H    0.150754
    13  H    0.046977
    14  H    0.157004
    15  H    0.138257
    16  H    0.097530
    17  H    0.098397
    18  H    0.058079
    19  H    0.151318
    20  H    0.064695
    21  S    0.237957
    22  C   -0.437799
    23  C   -0.317601
    24  C   -0.181914
    25  C   -0.218812
 Sum of Mulliken charges =  -0.00000

 Dipole moment (field-independent basis, Debye):
    X=              4.2569    Y=              0.0422    Z=              0.0280  Tot=              4.2572

 Test job not archived.
 1\1\GINC-SE114\SP\RHF\Aug-CC-pVDZ\C7H15N1O1S1\OHZDE\09-Apr-2025\0\\#t
 hf aug-cc-pvdz iop(5/13=1,5/36=2,99/5=2) pseudo=read geom=check guess=
 (read,tcheck) scf=(maxcycle=1)\\title\\0,1\C,0,-2.35790997,-0.53076315
 ,1.51380969\H,0,-2.45888814,0.43106478,2.01406411\H,0,-1.4356415,-1.01
 232631,1.83224394\H,0,-3.20368729,-1.14467685,1.81747472\C,0,-2.435185
 38,-0.3119418,0.01592702\O,0,-3.41358688,0.19433185,-0.50891479\N,0,-1
 .3525984,-0.72916607,-0.68842032\H,0,-0.53292762,-1.03795931,-0.184588
 74\C,0,-1.26500492,-0.56327277,-2.12344447\H,0,-2.26409386,-0.61429593

 Normal termination of Gaussian 16 at Wed Apr  9 19:28:28 2025.
