 Gaussian 16, Revision C.01,

 ----------------------------------------------------------------------
 #t hf aug-cc-pvdz symm=none int=(grid=ultrafine) guess=(read,tcheck) s
 table=(opt,rrhf)
 ----------------------------------------------------------------------
 -----
 title
 -----
 Symbolic Z-matrix:
 Charge =  0 Multiplicity = 1

 SCF Done:  E(RHF) =  -532.968673131     A.U. after   13 cycles
 Normal termination of Gaussian 16 at Wed Apr  9 19:23:48 2025.
 Gaussian 16:  ES64L-G16RevC.01  3-Jul-2019

 ----------------------------------------------------------------------
 #t hf aug-cc-pvdz iop(5/13=1,5/36=2,99/5=2) pseudo=read geom=check gue
 ss=(read,tcheck) scf=(maxcycle=1)
 ----------------------------------------------------------------------
 -----
 title
 -----
 Structure from the checkpoint file:  "HB300SPXx10_1043_4.08_0.90_ammonia_dimethylsulfide_dimer_mol1.chk"
 Charge =  0 Multiplicity = 1

                         Standard orientation:
 ---------------------------------------------------------------------
 Center     Atomic      Atomic             Coordinates (Angstroms)
 Number     Number       Type             X           Y           Z
 ---------------------------------------------------------------------
      1          7           0        2.749710   -0.278794    0.144725
      2          1           0        3.367929   -0.345059    0.943253
      3          1           0        1.879857   -0.737007    0.393251
      4          1           0        3.167480   -0.819087   -0.602272
      5          1           0       -0.172065    1.616138    1.043488
      6          1           0       -0.673925    2.034481   -0.613789
      7          1           0        0.995016    1.506942   -0.281412
      8          1           0       -2.504282   -1.428968    0.204687
      9          1           0       -2.789934    0.264074   -0.226351
     10          1           0       -2.159371   -0.154063    1.384942
     11          6           0       -0.049652    1.377070   -0.011621
     12         16           0       -0.451092   -0.361142   -0.322087
     13          6           0       -2.140548   -0.411673    0.327374
 ---------------------------------------------------------------------

 SCF Done:  E(RHF) =  -533.183957104     A.U. after    2 cycles

 The electronic state is 1-A.
 Alpha  occ. eigenvalues --  -93.93610 -15.47502 -11.25977 -11.25010  -8.21750
 Alpha  occ. eigenvalues --   -6.19582  -6.19422  -6.19202  -1.13654  -1.08072
 Alpha  occ. eigenvalues --   -0.95416  -0.82341  -0.66271  -0.65667  -0.60810
 Alpha  occ. eigenvalues --   -0.60375  -0.58098  -0.56777  -0.50009  -0.46097
 Alpha  occ. eigenvalues --   -0.44086  -0.34313
 Alpha virt. eigenvalues --    0.03683   0.03966   0.04498   0.05009   0.06699
 Alpha virt. eigenvalues --    0.06989   0.07836   0.07962   0.09320   0.11223
 Alpha virt. eigenvalues --    0.13459   0.14863   0.15476   0.16194   0.16725

 Mulliken charges:
               1
     1  N   -0.069965
     2  H    0.104217
     3  H   -0.060003
     4  H    0.114832
     5  H    0.205682
     6  H    0.152682
     7  H    0.136572
     8  H    0.142376
     9  H    0.184415
    10  H    0.169130
    11  C   -0.664781
    12  S    0.293127
    13  C   -0.708283
 Sum of Mulliken charges =   0.00000

 Dipole moment (field-independent basis, Debye):
    X=             -0.7426    Y=             -0.1067    Z=              1.1326  Tot=              1.3585

 Test job not archived.
 1\1\GINC-SE041\SP\RHF\Aug-CC-pVDZ\C2H9N1S1\OHZDE\09-Apr-2025\0\\#t hf
 aug-cc-pvdz iop(5/13=1,5/36=2,99/5=2) pseudo=read geom=check guess=(re
 ad,tcheck) scf=(maxcycle=1)\\title\\0,1\N,0,-1.73355141,-2.37393966,0.
 81983189\H,0,-2.47172211,-2.47256241,1.50511242\H,0,-1.77953232,-1.428
 67287,0.45551723\H,0,-1.951459,-2.99867579,0.05388488\H,0,0.57652343,0
 .1616579,1.90131568\H,0,1.94359348,-0.34337058,0.87686226\H,0,0.605967
 6,-1.46970595,1.2178348\H,0,-0.11728929,2.28525906,-1.32737331\H,0,1.4
 6323222,1.97387747,-0.59336069\H,0,0.05842076,2.34758316,0.43404354\C,

 Normal termination of Gaussian 16 at Wed Apr  9 19:23:51 2025.
