 Gaussian 16, Revision C.01,

 ----------------------------------------------------------------------
 #t hf aug-cc-pvdz symm=none int=(grid=ultrafine) guess=(read,tcheck) s
 table=(opt,rrhf)
 ----------------------------------------------------------------------
 -----
 title
 -----
 Symbolic Z-matrix:
 Charge =  0 Multiplicity = 1

 SCF Done:  E(RHF) =  -1013.77703326     A.U. after   12 cycles
 Normal termination of Gaussian 16 at Wed Apr  9 19:31:11 2025.
 Gaussian 16:  ES64L-G16RevC.01  3-Jul-2019

 ----------------------------------------------------------------------
 #t hf aug-cc-pvdz iop(5/13=1,5/36=2,99/5=2) pseudo=read geom=check gue
 ss=(read,tcheck) scf=(maxcycle=1)
 ----------------------------------------------------------------------
 -----
 title
 -----
 Structure from the checkpoint file:  "HB300SPXx10_1365_4.41_1.00_hydrogenchloride_tetrahydrothiophene_dimer_mol1.chk"
 Charge =  0 Multiplicity = 1

                         Standard orientation:
 ---------------------------------------------------------------------
 Center     Atomic      Atomic             Coordinates (Angstroms)
 Number     Number       Type             X           Y           Z
 ---------------------------------------------------------------------
      1          1           0       -1.531570   -0.448757    0.059679
      2         17           0       -2.600951    0.310173   -0.163388
      3          1           0        1.746460   -0.071014    1.952081
      4          1           0        0.044127    0.403613    2.048490
      5          1           0        1.758789    2.103401    0.873143
      6          1           0        0.132478   -0.189442   -1.822224
      7          1           0        0.204626    1.797490    0.100261
      8          1           0        1.567998   -1.224468   -1.791718
      9          1           0        1.917085    1.435343   -1.640530
     10          1           0        2.841734    0.402795   -0.553819
     11         16           0        0.404428   -1.254835    0.328488
     12          6           0        0.865890    0.190873    1.370063
     13          6           0        1.145653    1.336709    0.399951
     14          6           0        1.833499    0.724183   -0.819127
     15          6           0        0.998890   -0.485855   -1.234817
 ---------------------------------------------------------------------

 SCF Done:  E(RHF) =  -1014.08967898     A.U. after    2 cycles

 The electronic state is 1-A.
 Alpha  occ. eigenvalues -- -105.54750 -93.95399 -11.27614 -11.27601 -11.25171
 Alpha  occ. eigenvalues --  -11.24934 -10.59538  -8.23554  -7.76496  -7.76166
 Alpha  occ. eigenvalues --   -7.76162  -6.21338  -6.21224  -6.21035  -1.15429
 Alpha  occ. eigenvalues --   -1.03848  -1.00419  -1.00038  -0.81317  -0.81258
 Alpha  occ. eigenvalues --   -0.68158  -0.66482  -0.62171  -0.60699  -0.56276
 Alpha  occ. eigenvalues --   -0.52826  -0.51491  -0.50263  -0.50046  -0.45717
 Alpha  occ. eigenvalues --   -0.45587  -0.44775  -0.36258
 Alpha virt. eigenvalues --    0.03130   0.03558   0.03889   0.04740   0.06111
 Alpha virt. eigenvalues --    0.06646   0.07099   0.07622   0.07761   0.10680
 Alpha virt. eigenvalues --    0.12329   0.13751   0.14082   0.14221   0.14521

 Mulliken charges:
               1
     1  H    0.435848
     2  Cl  -0.288553
     3  H    0.136539
     4  H    0.118544
     5  H    0.152621
     6  H    0.086519
     7  H    0.104546
     8  H    0.170343
     9  H    0.142544
    10  H    0.111059
    11  S    0.177272
    12  C   -0.405576
    13  C   -0.286752
    14  C   -0.238567
    15  C   -0.416386
 Sum of Mulliken charges =  -0.00000

 Dipole moment (field-independent basis, Debye):
    X=              3.4324    Y=              0.9681    Z=             -0.1316  Tot=              3.5687

 Test job not archived.
 1\1\GINC-SE138\SP\RHF\Aug-CC-pVDZ\C4H9Cl1S1\OHZDE\09-Apr-2025\0\\#t hf
  aug-cc-pvdz iop(5/13=1,5/36=2,99/5=2) pseudo=read geom=check guess=(r
 ead,tcheck) scf=(maxcycle=1)\\title\\0,1\H,0,-0.21838216,0.19107529,-1
 .4737198\Cl,0,-0.27626126,1.34164549,-2.13866114\H,0,-1.61077747,-1.15
 018549,1.80219356\H,0,-2.03871529,-0.06382955,0.47207978\H,0,-0.867013
 51,1.00330613,2.63982534\H,0,1.84295939,0.12641753,-0.01613612\H,0,-0.
 31013464,1.50132904,1.04351463\H,0,2.18580786,-1.38006877,0.84750824\H
 ,0,1.71018413,0.83313797,2.29485434\H,0,0.94082529,-0.67351089,2.78492

 Normal termination of Gaussian 16 at Wed Apr  9 19:31:16 2025.
