 Gaussian 16, Revision C.01,

 ----------------------------------------------------------------------
 #t hf aug-cc-pvdz symm=none int=(grid=ultrafine) guess=(read,tcheck) s
 table=(opt,rrhf)
 ----------------------------------------------------------------------
 -----
 title
 -----
 Symbolic Z-matrix:
 Charge =  0 Multiplicity = 1

 SCF Done:  E(RHF) =  -398.697659072     A.U. after   10 cycles
 Normal termination of Gaussian 16 at Wed Apr  9 19:29:40 2025.
 Gaussian 16:  ES64L-G16RevC.01  3-Jul-2019

 ----------------------------------------------------------------------
 #t hf aug-cc-pvdz iop(5/13=1,5/36=2,99/5=2) pseudo=read geom=check gue
 ss=(read,tcheck) scf=(maxcycle=1)
 ----------------------------------------------------------------------
 -----
 title
 -----
 Structure from the checkpoint file:  "HB300SPXx10_131_1.14_0.80_sulfane_trimethylamine_dimer_mol2.chk"
 Charge =  0 Multiplicity = 1

                         Standard orientation:
 ---------------------------------------------------------------------
 Center     Atomic      Atomic             Coordinates (Angstroms)
 Number     Number       Type             X           Y           Z
 ---------------------------------------------------------------------
      1          1           0        0.983678   -0.851095    0.000000
      2          1           0       -0.983678   -0.807187   -0.000000
      3         16           0        0.000000    0.103643   -0.000000
 ---------------------------------------------------------------------

 SCF Done:  E(RHF) =  -398.760298835     A.U. after    2 cycles

 The electronic state is 1-A'.
 Alpha  occ. eigenvalues --  -93.96670  -8.24691  -6.22560  -6.22445  -6.22195
 Alpha  occ. eigenvalues --   -1.01600  -0.59530  -0.50813  -0.39225
 Alpha virt. eigenvalues --    0.03545   0.05933   0.10942   0.11668   0.12187
 Alpha virt. eigenvalues --    0.17941   0.20296   0.23472   0.27322   0.30877
 Alpha virt. eigenvalues --    0.31542   0.41126   0.46123   0.47852   0.53315

 Mulliken charges:
               1
     1  H    0.287305
     2  H    0.268267
     3  S   -0.555572
 Sum of Mulliken charges =   0.00000

 Dipole moment (field-independent basis, Debye):
    X=             -0.0142    Y=             -1.1893    Z=              0.0000  Tot=              1.1894

 Test job not archived.
 1\1\GINC-SE048\SP\RHF\Aug-CC-pVDZ\H2S1\OHZDE\09-Apr-2025\0\\#t hf aug-
 cc-pvdz iop(5/13=1,5/36=2,99/5=2) pseudo=read geom=check guess=(read,t
 check) scf=(maxcycle=1)\\title\\0,1\H,0,0.06719299,0.97177334,0.\H,0,1
 .32304535,2.48678341,0.\S,0,-0.00955285,2.34044335,0.\\Version=ES64L-G
 16RevC.01\State=1-A'\HF=-398.7602988\RMSD=6.124e-03\Dipole=0.3571373,-
 0.3023416,0.\Quadrupole=0.916185,1.1463096,-2.0624946,0.5287386,0.,0.\
 PG=CS [SG(H2S1)]\\@

 Normal termination of Gaussian 16 at Wed Apr  9 19:29:42 2025.
