 Gaussian 16, Revision C.01,

 ----------------------------------------------------------------------
 #t hf aug-cc-pvdz symm=none int=(grid=ultrafine) guess=(read,tcheck) s
 table=(opt,rrhf)
 ----------------------------------------------------------------------
 -----
 title
 -----
 Symbolic Z-matrix:
 Charge =  0 Multiplicity = 1

 SCF Done:  E(RHF) =  -1017.02370533     A.U. after   12 cycles
 Normal termination of Gaussian 16 at Wed Apr  9 19:31:03 2025.
 Gaussian 16:  ES64L-G16RevC.01  3-Jul-2019

 ----------------------------------------------------------------------
 #t hf aug-cc-pvdz iop(5/13=1,5/36=2,99/5=2) pseudo=read geom=check gue
 ss=(read,tcheck) scf=(maxcycle=1)
 ----------------------------------------------------------------------
 -----
 title
 -----
 Structure from the checkpoint file:  "HB300SPXx10_1383_5.01_0.90_dimethylsulfide_phosphineF2_dimer_mol1.chk"
 Charge =  0 Multiplicity = 1

                         Standard orientation:
 ---------------------------------------------------------------------
 Center     Atomic      Atomic             Coordinates (Angstroms)
 Number     Number       Type             X           Y           Z
 ---------------------------------------------------------------------
      1          1           0       -0.576981    0.865733    1.434139
      2          1           0       -2.309559    1.284606    1.424669
      3          1           0       -1.146707    2.263930    0.513216
      4          1           0       -2.103708   -2.062946   -0.706660
      5          1           0       -2.846555   -1.316677    0.715694
      6          1           0       -1.100287   -1.669259    0.700801
      7          6           0       -1.395636    1.255763    0.834174
      8         16           0       -1.627213    0.261127   -0.661239
      9          6           0       -1.949432   -1.350379    0.100114
     10         15           0        1.991807   -0.313363   -0.336351
     11          9           0        1.186913   -0.968769    0.883543
     12          9           0        1.629103    1.220004   -0.078983
     13          1           0        0.968369   -0.536395   -1.303537
 ---------------------------------------------------------------------

 SCF Done:  E(RHF) =  -1017.39787691     A.U. after    2 cycles

 The electronic state is 1-A.
 Alpha  occ. eigenvalues --  -93.93658 -84.40838 -26.48628 -26.48390 -11.25795
 Alpha  occ. eigenvalues --  -11.25540  -8.21795  -6.86561  -6.19627  -6.19469
 Alpha  occ. eigenvalues --   -6.19249  -4.39418  -4.38679  -4.37761  -1.62816
 Alpha  occ. eigenvalues --   -1.58337  -1.08199  -0.95620  -0.88577  -0.82426
 Alpha  occ. eigenvalues --   -0.71736  -0.71357  -0.69940  -0.65552  -0.62593
 Alpha  occ. eigenvalues --   -0.60825  -0.60534  -0.58372  -0.57699  -0.56787
 Alpha  occ. eigenvalues --   -0.50158  -0.44225  -0.38912  -0.33838
 Alpha virt. eigenvalues --    0.03865   0.04245   0.04776   0.05545   0.06573
 Alpha virt. eigenvalues --    0.06884   0.07586   0.08810   0.09645   0.09949
 Alpha virt. eigenvalues --    0.12162   0.13779   0.14926   0.15810   0.16184

 Mulliken charges:
               1
     1  H    0.173202
     2  H    0.131311
     3  H    0.147334
     4  H    0.147366
     5  H    0.150567
     6  H    0.148737
     7  C   -0.589814
     8  S    0.289245
     9  C   -0.645725
    10  P    1.378025
    11  F   -0.747377
    12  F   -0.719678
    13  H    0.136809
 Sum of Mulliken charges =  -0.00000

 Dipole moment (field-independent basis, Debye):
    X=              0.1223    Y=             -1.0018    Z=              0.3864  Tot=              1.0807

 Test job not archived.
 1\1\GINC-SE232\SP\RHF\Aug-CC-pVDZ\C2H7F2P1S1\OHZDE\09-Apr-2025\0\\#t h
 f aug-cc-pvdz iop(5/13=1,5/36=2,99/5=2) pseudo=read geom=check guess=(
 read,tcheck) scf=(maxcycle=1)\\title\\0,1\H,0,0.35324965,2.18742239,-0
 .72380577\H,0,0.23256961,2.54349189,-2.46622469\H,0,1.47961489,1.43776
 879,-1.86264863\H,0,-2.97879656,0.33269977,-1.6977403\H,0,-2.43534977,
 1.89515642,-2.32640837\H,0,-2.24831697,1.5140911,-0.59615001\C,0,0.456
 3691,1.7777672,-1.72571744\S,0,-0.61885679,0.337269,-1.94490696\C,0,-2
 .22218849,1.10820804,-1.60517522\P,0,-0.06861653,-0.10048632,1.6659796

 Normal termination of Gaussian 16 at Wed Apr  9 19:31:08 2025.
