 Gaussian 16, Revision C.01,

 ----------------------------------------------------------------------
 #t hf aug-cc-pvdz symm=none int=(grid=ultrafine) guess=(read,tcheck) s
 table=(opt,rrhf)
 ----------------------------------------------------------------------
 -----
 title
 -----
 Symbolic Z-matrix:
 Charge =  0 Multiplicity = 1

 SCF Done:  E(RHF) =  -1334.39720024     A.U. after   13 cycles
 Normal termination of Gaussian 16 at Wed Apr  9 19:28:50 2025.
 Gaussian 16:  ES64L-G16RevC.01  3-Jul-2019

 ----------------------------------------------------------------------
 #t hf aug-cc-pvdz iop(5/13=1,5/36=2,99/5=2) pseudo=read geom=check gue
 ss=(read,tcheck) scf=(maxcycle=1)
 ----------------------------------------------------------------------
 -----
 title
 -----
 Structure from the checkpoint file:  "HB300SPXx10_1316_4.36_1.05_hydrogenchloride_dimethyldisulfide_dimer_mol1.chk"
 Charge =  0 Multiplicity = 1

                         Standard orientation:
 ---------------------------------------------------------------------
 Center     Atomic      Atomic             Coordinates (Angstroms)
 Number     Number       Type             X           Y           Z
 ---------------------------------------------------------------------
      1          1           0       -1.870776   -0.198484    0.373949
      2         17           0       -3.050738   -0.513815   -0.087644
      3          1           0        3.539291   -1.329594   -0.550532
      4          1           0        3.317769   -0.334023    0.904034
      5          1           0        3.200913    0.402437   -0.717846
      6          1           0       -0.528448    1.402217   -1.410132
      7          1           0        1.031617    2.185677   -1.028263
      8          1           0       -0.450549    2.698393   -0.196293
      9          6           0        3.000952   -0.484609   -0.123547
     10         16           0        1.238298   -0.932877   -0.188445
     11         16           0        0.333312    0.664744    0.728131
     12          6           0        0.078542    1.851004   -0.629777
 ---------------------------------------------------------------------

 SCF Done:  E(RHF) =  -1334.68838119     A.U. after    2 cycles

 The electronic state is 1-A.
 Alpha  occ. eigenvalues -- -105.56043 -93.98560 -93.97966 -11.28038 -11.27945
 Alpha  occ. eigenvalues --  -10.60803  -8.26547  -8.25977  -7.77778  -7.77411
 Alpha  occ. eigenvalues --   -7.77410  -6.24350  -6.24140  -6.23941  -6.23783
 Alpha  occ. eigenvalues --   -6.23569  -6.23339  -1.13241  -1.05068  -1.03770
 Alpha  occ. eigenvalues --   -0.93174  -0.82298  -0.63484  -0.62523  -0.61648
 Alpha  occ. eigenvalues --   -0.60257  -0.59846  -0.55329  -0.51358  -0.46562
 Alpha  occ. eigenvalues --   -0.46523  -0.46180  -0.38180  -0.37133
 Alpha virt. eigenvalues --    0.03090   0.03722   0.04677   0.05206   0.06451
 Alpha virt. eigenvalues --    0.06940   0.07953   0.08922   0.09696   0.11974
 Alpha virt. eigenvalues --    0.13240   0.13757   0.13915   0.14633   0.15105

 Mulliken charges:
               1
     1  H    0.314677
     2  Cl  -0.198430
     3  H    0.170029
     4  H    0.226537
     5  H    0.188939
     6  H    0.155342
     7  H    0.150262
     8  H    0.209945
     9  C   -0.751506
    10  S    0.200010
    11  S   -0.067822
    12  C   -0.597982
 Sum of Mulliken charges =  -0.00000

 Dipole moment (field-independent basis, Debye):
    X=              3.5235    Y=              1.9402    Z=             -0.7336  Tot=              4.0888

 Test job not archived.
 1\1\GINC-SE454\SP\RHF\Aug-CC-pVDZ\C2H7Cl1S2\OHZDE\09-Apr-2025\0\\#t hf
  aug-cc-pvdz iop(5/13=1,5/36=2,99/5=2) pseudo=read geom=check guess=(r
 ead,tcheck) scf=(maxcycle=1)\\title\\0,1\H,0,-0.26068265,0.62653872,-1
 .61580209\Cl,0,0.10581098,1.51670262,-2.49790267\H,0,1.77684502,-2.080
 47676,2.84776656\H,0,0.17850643,-2.69907263,2.3801681\H,0,0.32371985,-
 1.15241643,3.25953779\H,0,-0.61939836,1.79228333,0.84578137\H,0,-1.308
 84836,0.91729804,2.24309906\H,0,-2.32602041,1.29536858,0.83800383\C,0,
 0.77678832,-1.80339584,2.51725675\S,0,0.99842182,-0.93565186,0.9329578

 Normal termination of Gaussian 16 at Wed Apr  9 19:28:54 2025.
