 Gaussian 16, Revision C.01,

 ----------------------------------------------------------------------
 #t hf aug-cc-pvdz symm=none int=(grid=ultrafine) guess=(read,tcheck) s
 table=(opt,rrhf)
 ----------------------------------------------------------------------
 -----
 title
 -----
 Symbolic Z-matrix:
 Charge =  0 Multiplicity = 1

 SCF Done:  E(RHF) =  -952.382031804     A.U. after   12 cycles

 1\1\GINC-SE224\Stability\RHF\Aug-CC-pVDZ\C4H10S2\OHZDE\09-Apr-2025\0\\
 #t hf aug-cc-pvdz symm=none int=(grid=ultrafine) guess=(read,tcheck) s
 table=(opt,rrhf)\\title\\0,1\H,0,1.25927999,1.11406487,-0.28265552\H,0
 ,2.28279017,2.73418341,-0.67577847\S,0,1.07110419,2.4516331,-0.1764195
 4\H,0,0.10665094,-0.63686405,1.80049952\H,0,0.01683218,-2.38007778,2.0
 8150822\H,0,-2.28615043,-1.0252988,1.89250059\H,0,-1.30356309,-2.34846
 988,-1.66299746\H,0,-2.13877091,-2.54352466,1.01019402\H,0,-0.59931541
 ,-0.76266774,-2.00652125\H,0,-2.91159688,-0.86927576,-0.63268293\H,0,-

 Normal termination of Gaussian 16 at Wed Apr  9 19:29:13 2025.
 Gaussian 16:  ES64L-G16RevC.01  3-Jul-2019

 ----------------------------------------------------------------------
 #t hf aug-cc-pvdz iop(5/13=1,5/36=2,99/5=2) pseudo=read geom=check gue
 ss=(read,tcheck) scf=(maxcycle=1)
 ----------------------------------------------------------------------
 -----
 title
 -----
 Structure from the checkpoint file:  "HB300SPXx10_1238_4.28_1.25_sulfane_tetrahydrothiophene_dimer_mol1.chk"
 Charge =  0 Multiplicity = 1

                         Standard orientation:
 ---------------------------------------------------------------------
 Center     Atomic      Atomic             Coordinates (Angstroms)
 Number     Number       Type             X           Y           Z
 ---------------------------------------------------------------------
      1          1           0       -2.044102   -0.571987   -0.017719
      2          1           0       -3.980618   -0.803734    0.134281
      3         16           0       -3.142514    0.217712   -0.092893
      4          1           0        0.241783    0.027815   -1.792207
      5          1           0        1.864687   -0.631130   -2.032626
      6          1           0        1.652684    1.955217   -1.368743
      7          1           0        2.029145   -0.162933    1.906855
      8          1           0        2.849402    0.974732   -0.525113
      9          1           0        0.269153   -0.122631    2.078741
     10          1           0        1.526659    2.100936    1.230288
     11          1           0        0.027888    1.611681    0.452178
     12         16           0        0.940775   -1.329526    0.088690
     13          6           0        1.198987   -0.166125   -1.310784
     14          6           0        1.780180    1.105477   -0.697937
     15          6           0        1.061643    1.316109    0.633849
     16          6           0        1.091049   -0.020284    1.375091
 ---------------------------------------------------------------------

 SCF Done:  E(RHF) =  -952.677401288     A.U. after    2 cycles

 The electronic state is 1-A.
 Alpha  occ. eigenvalues --  -93.95833 -93.93428 -11.26452 -11.26433 -11.24339
 Alpha  occ. eigenvalues --  -11.24312  -8.23906  -8.21549  -6.21784  -6.21668
 Alpha  occ. eigenvalues --   -6.21423  -6.19353  -6.19233  -6.19005  -1.14115
 Alpha  occ. eigenvalues --   -1.01213  -0.99328  -0.98710  -0.80326  -0.79937
 Alpha  occ. eigenvalues --   -0.66939  -0.65392  -0.61071  -0.59127  -0.55962
 Alpha  occ. eigenvalues --   -0.51823  -0.50599  -0.50285  -0.49096  -0.48966
 Alpha  occ. eigenvalues --   -0.43373  -0.38662  -0.34343
 Alpha virt. eigenvalues --    0.03477   0.03880   0.03958   0.04300   0.05744
 Alpha virt. eigenvalues --    0.06436   0.06768   0.07658   0.08216   0.08682
 Alpha virt. eigenvalues --    0.11041   0.12565   0.13251   0.14452   0.14557

 Mulliken charges:
               1
     1  H    0.296211
     2  H    0.235745
     3  S   -0.526361
     4  H    0.132408
     5  H    0.165486
     6  H    0.143249
     7  H    0.154007
     8  H    0.107745
     9  H    0.148867
    10  H    0.153291
    11  H    0.059072
    12  S    0.460774
    13  C   -0.523123
    14  C   -0.224661
    15  C   -0.287307
    16  C   -0.495403
 Sum of Mulliken charges =  -0.00000

 Dipole moment (field-independent basis, Debye):
    X=              0.8649    Y=              1.0642    Z=              0.1039  Tot=              1.3753

 Test job not archived.
 1\1\GINC-SE224\SP\RHF\Aug-CC-pVDZ\C4H10S2\OHZDE\09-Apr-2025\0\\#t hf a
 ug-cc-pvdz iop(5/13=1,5/36=2,99/5=2) pseudo=read geom=check guess=(rea
 d,tcheck) scf=(maxcycle=1)\\title\\0,1\H,0,1.25927999,1.11406487,-0.28
 265552\H,0,2.28279017,2.73418341,-0.67577847\S,0,1.07110419,2.4516331,
 -0.17641954\H,0,0.10665094,-0.63686405,1.80049952\H,0,0.01683218,-2.38
 007778,2.08150822\H,0,-2.28615043,-1.0252988,1.89250059\H,0,-1.3035630
 9,-2.34846988,-1.66299746\H,0,-2.13877091,-2.54352466,1.01019402\H,0,-
 0.59931541,-0.76266774,-2.00652125\H,0,-2.91159688,-0.86927576,-0.6326

 Normal termination of Gaussian 16 at Wed Apr  9 19:29:19 2025.
