 Gaussian 16, Revision C.01,

 ----------------------------------------------------------------------
 #t hf aug-cc-pvdz symm=none int=(grid=ultrafine) guess=(read,tcheck) s
 table=(opt,rrhf)
 ----------------------------------------------------------------------
 -----
 title
 -----
 Symbolic Z-matrix:
 Charge =  0 Multiplicity = 1

 SCF Done:  E(RHF) =  -601.591933558     A.U. after   14 cycles
 Normal termination of Gaussian 16 at Wed Apr  9 19:22:42 2025.
 Gaussian 16:  ES64L-G16RevC.01  3-Jul-2019

 ----------------------------------------------------------------------
 #t hf aug-cc-pvdz iop(5/13=1,5/36=2,99/5=2) pseudo=read geom=check gue
 ss=(read,tcheck) scf=(maxcycle=1)
 ----------------------------------------------------------------------
 -----
 title
 -----
 Structure from the checkpoint file:  "HB300SPXx10_102_1.11_0.85_sulfane_methylazide_dimer_mol1.chk"
 Charge =  0 Multiplicity = 1

                         Standard orientation:
 ---------------------------------------------------------------------
 Center     Atomic      Atomic             Coordinates (Angstroms)
 Number     Number       Type             X           Y           Z
 ---------------------------------------------------------------------
      1          1           0       -1.127064   -0.517102   -0.011407
      2          1           0       -2.616621   -0.462238    1.238409
      3         16           0       -2.455748   -0.316938   -0.084903
      4          1           0        1.083167    1.952989   -0.907511
      5          1           0        1.126760    1.988619    0.872320
      6          1           0       -0.419176    1.807984    0.022440
      7          6           0        0.634417    1.552102    0.002285
      8          7           0        0.706322    0.081708    0.030274
      9          7           0        1.830217   -0.406347    0.004128
     10          7           0        2.811804   -0.962769   -0.015760
 ---------------------------------------------------------------------

 SCF Done:  E(RHF) =  -601.859483613     A.U. after    2 cycles

 The electronic state is 1-A.
 Alpha  occ. eigenvalues --  -93.94033 -15.73347 -15.61946 -15.55938 -11.29273
 Alpha  occ. eigenvalues --   -8.22215  -6.20093  -6.19976  -6.19744  -1.52874
 Alpha  occ. eigenvalues --   -1.34389  -1.03265  -1.00108  -0.79196  -0.77592
 Alpha  occ. eigenvalues --   -0.76821  -0.72972  -0.61903  -0.60672  -0.57981
 Alpha  occ. eigenvalues --   -0.51579  -0.47176  -0.44244  -0.37555
 Alpha virt. eigenvalues --    0.03075   0.04979   0.05275   0.05617   0.06562
 Alpha virt. eigenvalues --    0.07754   0.09243   0.09624   0.10601   0.11214
 Alpha virt. eigenvalues --    0.13141   0.13834   0.15630   0.16241   0.17334

 Mulliken charges:
               1
     1  H    0.448340
     2  H    0.248264
     3  S   -0.607763
     4  H    0.159111
     5  H    0.156474
     6  H    0.064055
     7  C   -0.216731
     8  N    0.423043
     9  N   -1.629516
    10  N    0.954723
 Sum of Mulliken charges =  -0.00000

 Dipole moment (field-independent basis, Debye):
    X=              1.2703    Y=              2.0549    Z=              0.8324  Tot=              2.5553

 Test job not archived.
 1\1\GINC-SE104\SP\RHF\Aug-CC-pVDZ\C1H5N3S1\OHZDE\09-Apr-2025\0\\#t hf
 aug-cc-pvdz iop(5/13=1,5/36=2,99/5=2) pseudo=read geom=check guess=(re
 ad,tcheck) scf=(maxcycle=1)\\title\\0,1\H,0,1.21774303,0.78814331,-0.0
 7896573\H,0,1.90622629,2.11329938,-1.32547278\S,0,1.84165876,1.9773473
 1,0.00700442\H,0,-1.9606485,0.36849276,1.15034018\H,0,-2.21149001,0.47
 460626,-0.60942846\H,0,-1.06868415,1.56625566,0.19502189\C,0,-1.476658
 46,0.56152287,0.19205615\N,0,-0.33989092,-0.34873922,-0.02518789\N,0,-
 0.60167877,-1.54573235,-0.0515658\N,0,-0.72601934,-2.66654533,-0.09436

 Normal termination of Gaussian 16 at Wed Apr  9 19:22:46 2025.
