 Gaussian 16, Revision C.01,

 ----------------------------------------------------------------------
 #t hf aug-cc-pvdz symm=none int=(grid=ultrafine) guess=(read,tcheck) s
 table=(opt,rrhf)
 ----------------------------------------------------------------------
 -----
 title
 -----
 Symbolic Z-matrix:
 Charge =  0 Multiplicity = 1

 SCF Done:  E(RHF) =  -914.493973304     A.U. after   12 cycles

 1\1\GINC-SE195\Stability\RHF\Aug-CC-pVDZ\C3H10S2\OHZDE\09-Apr-2025\0\\
 #t hf aug-cc-pvdz symm=none int=(grid=ultrafine) guess=(read,tcheck) s
 table=(opt,rrhf)\\title\\0,1\H,0,2.306559,-2.0578968,-0.64952301\H,0,3
 .32031438,-1.47471252,0.67641305\H,0,2.52307119,-0.31083024,-0.3888258
 5\H,0,0.07002633,-1.01993654,0.36023035\C,0,2.42249764,-1.27751778,0.0
 9684023\S,0,1.02865784,-1.2837739,1.27093846\H,0,0.68000626,1.51735538
 ,0.02381803\H,0,-0.23280249,2.79599646,-0.81950287\H,0,0.78206257,1.67
 636457,-1.74184068\H,0,-3.02569877,0.27555581,0.41605823\H,0,-2.501764

 Normal termination of Gaussian 16 at Wed Apr  9 04:10:36 2025.
 Gaussian 16:  ES64L-G16RevC.01  3-Jul-2019

 ----------------------------------------------------------------------
 #t hf aug-cc-pvdz iop(5/13=1,5/36=2,99/5=2) pseudo=read geom=check gue
 ss=(read,tcheck) scf=(maxcycle=1)
 ----------------------------------------------------------------------
 -----
 title
 -----
 Structure from the checkpoint file:  "HB300SPXx10_1185_4.23_1.00_methanethiol_dimethylsulfide_dimer_mol1.chk"
 Charge =  0 Multiplicity = 1

                         Standard orientation:
 ---------------------------------------------------------------------
 Center     Atomic      Atomic             Coordinates (Angstroms)
 Number     Number       Type             X           Y           Z
 ---------------------------------------------------------------------
      1          1           0        2.713254    1.006222   -1.283748
      2          1           0        3.568405    0.910983    0.260777
      3          1           0        1.956174    1.633428    0.199668
      4          1           0        0.760664   -0.634644   -0.513039
      5          6           0        2.592837    0.856679   -0.214810
      6         16           0        1.927136   -0.801847    0.142216
      7          1           0       -0.347366    0.953850    1.267986
      8          1           0       -2.040839    1.496421    1.398757
      9          1           0       -0.931839    2.313511    0.286679
     10          1           0       -2.293941   -2.021012   -0.402107
     11          1           0       -2.859868   -1.075455    0.984670
     12          1           0       -1.151538   -1.566803    0.876442
     13          6           0       -1.200198    1.354239    0.722473
     14         16           0       -1.651384    0.251056   -0.640881
     15          6           0       -2.023495   -1.244894    0.309428
 ---------------------------------------------------------------------

 SCF Done:  E(RHF) =  -914.753510102     A.U. after    2 cycles

 The electronic state is 1-A.
 Alpha  occ. eigenvalues --  -93.94543 -93.93928 -11.26473 -11.26458 -11.26429
 Alpha  occ. eigenvalues --   -8.22643  -8.22035  -6.20474  -6.20317  -6.20099
 Alpha  occ. eigenvalues --   -6.19896  -6.19757  -6.19531  -1.09130  -1.05500
 Alpha  occ. eigenvalues --   -0.96296  -0.88017  -0.83145  -0.62794  -0.61548
 Alpha  occ. eigenvalues --   -0.60522  -0.59556  -0.59064  -0.57554  -0.52879
 Alpha  occ. eigenvalues --   -0.50907  -0.46425  -0.44860  -0.35818  -0.34919
 Alpha virt. eigenvalues --    0.03372   0.03758   0.04384   0.04650   0.06014
 Alpha virt. eigenvalues --    0.06522   0.06807   0.07752   0.08929   0.10038
 Alpha virt. eigenvalues --    0.10395   0.12966   0.13266   0.14200   0.14640

 Mulliken charges:
               1
     1  H    0.136214
     2  H    0.141740
     3  H    0.128541
     4  H    0.502291
     5  C   -0.678105
     6  S   -0.197424
     7  H    0.171669
     8  H    0.122033
     9  H    0.164949
    10  H    0.161165
    11  H    0.166789
    12  H    0.096911
    13  C   -0.568293
    14  S    0.244656
    15  C   -0.593137
 Sum of Mulliken charges =  -0.00000

 Dipole moment (field-independent basis, Debye):
    X=             -0.5102    Y=              1.2571    Z=              1.0121  Tot=              1.6926

 Test job not archived.
 1\1\GINC-SE195\SP\RHF\Aug-CC-pVDZ\C3H10S2\OHZDE\09-Apr-2025\0\\#t hf a
 ug-cc-pvdz iop(5/13=1,5/36=2,99/5=2) pseudo=read geom=check guess=(rea
 d,tcheck) scf=(maxcycle=1)\\title\\0,1\H,0,2.306559,-2.0578968,-0.6495
 2301\H,0,3.32031438,-1.47471252,0.67641305\H,0,2.52307119,-0.31083024,
 -0.38882585\H,0,0.07002633,-1.01993654,0.36023035\C,0,2.42249764,-1.27
 751778,0.09684023\S,0,1.02865784,-1.2837739,1.27093846\H,0,0.68000626,
 1.51735538,0.02381803\H,0,-0.23280249,2.79599646,-0.81950287\H,0,0.782
 06257,1.67636457,-1.74184068\H,0,-3.02569877,0.27555581,0.41605823\H,0

 Normal termination of Gaussian 16 at Wed Apr  9 04:10:44 2025.
