 Gaussian 16, Revision C.01,

 ----------------------------------------------------------------------
 #t hf aug-cc-pvdz symm=none int=(grid=ultrafine) guess=(read,tcheck) s
 table=(opt,rrhf)
 ----------------------------------------------------------------------
 -----
 title
 -----
 Symbolic Z-matrix:
 Charge =  0 Multiplicity = 1

 SCF Done:  E(RHF) =  -1121.34491121     A.U. after   13 cycles
 Normal termination of Gaussian 16 at Wed Apr  9 19:26:24 2025.
 Gaussian 16:  ES64L-G16RevC.01  3-Jul-2019

 ----------------------------------------------------------------------
 #t hf aug-cc-pvdz iop(5/13=1,5/36=2,99/5=2) pseudo=read geom=check gue
 ss=(read,tcheck) scf=(maxcycle=1)
 ----------------------------------------------------------------------
 -----
 title
 -----
 Structure from the checkpoint file:  "HB300SPXx10_1095_4.13_1.00_Nmethylacetamide_dimethyldisulfide_dimer_mol1.chk"
 Charge =  0 Multiplicity = 1

                         Standard orientation:
 ---------------------------------------------------------------------
 Center     Atomic      Atomic             Coordinates (Angstroms)
 Number     Number       Type             X           Y           Z
 ---------------------------------------------------------------------
      1          6           0       -1.786713    1.678998   -0.758462
      2          1           0       -1.124526    1.501713   -1.605954
      3          1           0       -1.212729    2.138726    0.043784
      4          1           0       -2.571956    2.356694   -1.082035
      5          6           0       -2.413442    0.358422   -0.355950
      6          8           0       -3.331486   -0.135520   -0.988452
      7          7           0       -1.870502   -0.224173    0.744975
      8          1           0       -1.035595    0.184288    1.131588
      9          6           0       -2.242129   -1.555403    1.177237
     10          1           0       -3.249447   -1.760646    0.828609
     11          1           0       -1.570943   -2.313138    0.767331
     12          1           0       -2.216892   -1.613495    2.263745
     13          1           0        2.772330   -2.188381   -1.748117
     14          1           0        3.361607   -1.936401   -0.090605
     15          1           0        3.550247   -0.654666   -1.317923
     16          1           0        1.233018    2.322394   -0.470213
     17          1           0        2.965386    1.915456   -0.352671
     18          1           0        2.157002    2.747395    0.988461
     19          6           0        2.912760   -1.455693   -0.954589
     20         16           0        1.250685   -0.836190   -0.546468
     21         16           0        1.603724    0.444044    1.016261
     22          6           0        2.032419    2.011635    0.195117
 ---------------------------------------------------------------------

 SCF Done:  E(RHF) =  -1121.81408487     A.U. after    2 cycles

 The electronic state is 1-A.
 Alpha  occ. eigenvalues --  -93.98420 -93.98025 -20.48840 -15.50850 -11.34090
 Alpha  occ. eigenvalues --  -11.28299 -11.27960 -11.25310 -11.23590  -8.26399
 Alpha  occ. eigenvalues --   -8.26020  -6.24211  -6.24001  -6.23827  -6.23786
 Alpha  occ. eigenvalues --   -6.23614  -6.23387  -1.43853  -1.22570  -1.13290
 Alpha  occ. eigenvalues --   -1.03934  -1.01397  -0.93428  -0.93266  -0.82342
 Alpha  occ. eigenvalues --   -0.80596  -0.69554  -0.66003  -0.63790  -0.63211
 Alpha  occ. eigenvalues --   -0.62177  -0.61678  -0.59986  -0.58462  -0.57575
 Alpha  occ. eigenvalues --   -0.55871  -0.55454  -0.54464  -0.51410  -0.50090
 Alpha  occ. eigenvalues --   -0.46240  -0.40827  -0.39865  -0.38276  -0.37087
 Alpha virt. eigenvalues --    0.02808   0.03128   0.03776   0.04241   0.05254
 Alpha virt. eigenvalues --    0.05538   0.05932   0.06665   0.07167   0.07947
 Alpha virt. eigenvalues --    0.08277   0.08684   0.08987   0.10628   0.11101

 Mulliken charges:
               1
     1  C   -0.417623
     2  H    0.267026
     3  H    0.169249
     4  H    0.153387
     5  C    0.418551
     6  O   -1.378244
     7  N    0.913573
     8  H    0.108461
     9  C   -0.396907
    10  H    0.056957
    11  H    0.159473
    12  H    0.104930
    13  H    0.168990
    14  H    0.206752
    15  H    0.178009
    16  H    0.107817
    17  H    0.143548
    18  H    0.211879
    19  C   -0.866034
    20  S    0.369912
    21  S    0.006933
    22  C   -0.686639
 Sum of Mulliken charges =  -0.00000

 Dipole moment (field-independent basis, Debye):
    X=              5.5515    Y=              1.4655    Z=              0.9076  Tot=              5.8130

 Test job not archived.
 1\1\GINC-SE084\SP\RHF\Aug-CC-pVDZ\C5H13N1O1S2\OHZDE\09-Apr-2025\0\\#t
 hf aug-cc-pvdz iop(5/13=1,5/36=2,99/5=2) pseudo=read geom=check guess=
 (read,tcheck) scf=(maxcycle=1)\\title\\0,1\C,0,-1.31055971,-0.36190707
 ,2.17525478\H,0,-0.76310857,0.57466921,2.28149083\H,0,-0.59510431,-1.1
 7658722,2.08130356\H,0,-1.91110445,-0.50300543,3.06969011\C,0,-2.23351
 851,-0.24400233,0.97818704\O,0,-3.28055753,0.37845097,1.03390772\N,0,-
 1.80028089,-0.8717422,-0.1463058\H,0,-0.86873727,-1.25332097,-0.144399
 63\C,0,-2.47826303,-0.73306099,-1.41840567\H,0,-3.52176476,-0.50262299

 Normal termination of Gaussian 16 at Wed Apr  9 19:26:37 2025.
