 Gaussian 16, Revision C.01,

 ----------------------------------------------------------------------
 #t hf aug-cc-pvdz symm=none int=(grid=ultrafine) guess=(read,tcheck) s
 table=(opt,rrhf)
 ----------------------------------------------------------------------
 -----
 title
 -----
 Symbolic Z-matrix:
 Charge =  0 Multiplicity = 1

 SCF Done:  E(RHF) =  -742.466180337     A.U. after   14 cycles
 Normal termination of Gaussian 16 at Wed Apr  9 19:27:34 2025.
 Gaussian 16:  ES64L-G16RevC.01  3-Jul-2019

 ----------------------------------------------------------------------
 #t hf aug-cc-pvdz iop(5/13=1,5/36=2,99/5=2) pseudo=read geom=check gue
 ss=(read,tcheck) scf=(maxcycle=1)
 ----------------------------------------------------------------------
 -----
 title
 -----
 Structure from the checkpoint file:  "HB300SPXx10_1131_4.17_0.80_aceticacid_thioacetone_dimer_mol1.chk"
 Charge =  0 Multiplicity = 1

                         Standard orientation:
 ---------------------------------------------------------------------
 Center     Atomic      Atomic             Coordinates (Angstroms)
 Number     Number       Type             X           Y           Z
 ---------------------------------------------------------------------
      1          6           0       -1.913320    1.126757    0.000000
      2          8           0       -1.998171   -0.078482    0.000000
      3          8           0       -0.748308    1.785936    0.000000
      4          1           0        0.000000    1.146584    0.000000
      5          6           0       -3.087717    2.066619    0.000000
      6          1           0       -4.012347    1.500298    0.000000
      7          1           0       -3.043501    2.711074    0.876954
      8          1           0       -3.043501    2.711074   -0.876954
      9          1           0        3.653160   -1.589241    0.000000
     10          1           0        2.708501   -2.815909    0.874412
     11          1           0        2.708501   -2.815909   -0.874412
     12          1           0       -0.641519   -1.318395    0.000000
     13          1           0        0.154379   -2.648321   -0.872921
     14          6           0        2.731403   -2.160821    0.000000
     15          6           0        1.520937   -1.278876    0.000000
     16         16           0        1.660941    0.346003    0.000000
     17          6           0        0.208483   -1.991780    0.000000
     18          1           0        0.154379   -2.648321    0.872921
 ---------------------------------------------------------------------

 SCF Done:  E(RHF) =  -742.882901440     A.U. after    2 cycles

 The electronic state is 1-A'.
 Alpha  occ. eigenvalues --  -93.93158 -20.55682 -20.52086 -11.38102 -11.34392
 Alpha  occ. eigenvalues --  -11.25875 -11.24061 -11.23449  -8.21749  -6.19552
 Alpha  occ. eigenvalues --   -6.19334  -6.19183  -1.52469  -1.43451  -1.14309
 Alpha  occ. eigenvalues --   -1.01920  -0.98841  -0.97104  -0.81654  -0.73603
 Alpha  occ. eigenvalues --   -0.71200  -0.66861  -0.63426  -0.62777  -0.62451
 Alpha  occ. eigenvalues --   -0.61688  -0.57028  -0.56426  -0.56333  -0.54368
 Alpha  occ. eigenvalues --   -0.53522  -0.50858  -0.45628  -0.42624  -0.40547
 Alpha  occ. eigenvalues --   -0.36088
 Alpha virt. eigenvalues --    0.03239   0.03524   0.04130   0.04706   0.05962
 Alpha virt. eigenvalues --    0.05999   0.06065   0.06182   0.07838   0.07912
 Alpha virt. eigenvalues --    0.08834   0.09689   0.12579   0.12861   0.13331

 Mulliken charges:
               1
     1  C    1.833055
     2  O   -1.355852
     3  O   -1.532079
     4  H    1.001961
     5  C   -0.493871
     6  H    0.163009
     7  H    0.231213
     8  H    0.231213
     9  H    0.167084
    10  H    0.254891
    11  H    0.254891
    12  H   -0.114966
    13  H    0.338506
    14  C   -0.495852
    15  C   -0.692908
    16  S    0.085445
    17  C   -0.214245
    18  H    0.338506
 Sum of Mulliken charges =  -0.00000

 Dipole moment (field-independent basis, Debye):
    X=              0.6986    Y=             -2.0975    Z=             -0.0000  Tot=              2.2108

 Test job not archived.
 1\1\GINC-SE048\SP\RHF\Aug-CC-pVDZ\C5H10O2S1\OHZDE\09-Apr-2025\0\\#t hf
  aug-cc-pvdz iop(5/13=1,5/36=2,99/5=2) pseudo=read geom=check guess=(r
 ead,tcheck) scf=(maxcycle=1)\\title\\0,1\C,0,0.15920132,2.45664609,0.\
 O,0,1.21885316,1.87618237,0.\O,0,-1.02533188,1.83322707,0.\H,0,-0.8922
 641,0.85801947,0.\C,0,0.00380934,3.95277518,0.\H,0,0.98023034,4.424223
 4,0.\H,0,-0.56217465,4.2641268,-0.87695442\H,0,-0.56217465,4.2641268,0
 .87695442\H,0,-0.56683422,-3.69438738,0.\H,0,0.9758559,-3.56323056,-0.
 87441231\H,0,0.9758559,-3.56323056,0.87441231\H,0,1.52805716,0.0644759

 Normal termination of Gaussian 16 at Wed Apr  9 19:27:40 2025.
