 Gaussian 16, Revision C.01,

 ----------------------------------------------------------------------
 #t hf aug-cc-pvdz symm=none int=(grid=ultrafine) guess=(read,tcheck) s
 table=(opt,rrhf)
 ----------------------------------------------------------------------
 -----
 title
 -----
 Symbolic Z-matrix:
 Charge =  0 Multiplicity = 1

 SCF Done:  E(RHF) =  -704.609423286     A.U. after   13 cycles
 Normal termination of Gaussian 16 at Wed Apr  9 19:26:20 2025.
 Gaussian 16:  ES64L-G16RevC.01  3-Jul-2019

 ----------------------------------------------------------------------
 #t hf aug-cc-pvdz iop(5/13=1,5/36=2,99/5=2) pseudo=read geom=check gue
 ss=(read,tcheck) scf=(maxcycle=1)
 ----------------------------------------------------------------------
 -----
 title
 -----
 Structure from the checkpoint file:  "HB300SPXx10_1122_4.16_0.85_aceticacid_dimethylsulfide_dimer_mol1.chk"
 Charge =  0 Multiplicity = 1

                         Standard orientation:
 ---------------------------------------------------------------------
 Center     Atomic      Atomic             Coordinates (Angstroms)
 Number     Number       Type             X           Y           Z
 ---------------------------------------------------------------------
      1          6           0        0.277208    1.672498    0.000000
      2          8           0       -0.874656    1.303519    0.000000
      3          8           0        1.319840    0.834296    0.000000
      4          1           0        0.991339   -0.099140    0.000000
      5          6           0        0.712213    3.112154    0.000000
      6          1           0       -0.157339    3.759871    0.000000
      7          1           0        1.327083    3.310945    0.876781
      8          1           0        1.327083    3.310945   -0.876781
      9          1           0       -1.693952   -2.222002    1.379195
     10          1           0       -1.255631   -0.490502    1.315483
     11          1           0       -0.302630   -1.625711    2.299403
     12          1           0       -0.302630   -1.625711   -2.299403
     13          1           0       -1.255631   -0.490502   -1.315483
     14          1           0       -1.693952   -2.222002   -1.379195
     15          6           0       -0.874656   -1.506460    1.382643
     16         16           0        0.250883   -1.833694   -0.000000
     17          6           0       -0.874656   -1.506460   -1.382643
 ---------------------------------------------------------------------

 SCF Done:  E(RHF) =  -704.991611705     A.U. after    2 cycles

 The electronic state is 1-A'.
 Alpha  occ. eigenvalues --  -93.95065 -20.56545 -20.52499 -11.38509 -11.26032
 Alpha  occ. eigenvalues --  -11.26004 -11.24489  -8.23336  -6.21144  -6.20993
 Alpha  occ. eigenvalues --   -6.20829  -1.52963  -1.43764  -1.09737  -1.02137
 Alpha  occ. eigenvalues --   -0.96128  -0.84380  -0.80782  -0.70244  -0.67600
 Alpha  occ. eigenvalues --   -0.64084  -0.62119  -0.61260  -0.58908  -0.57635
 Alpha  occ. eigenvalues --   -0.57274  -0.55579  -0.54628  -0.50968  -0.45913
 Alpha  occ. eigenvalues --   -0.45417  -0.43289  -0.36226
 Alpha virt. eigenvalues --    0.03778   0.03882   0.04000   0.04856   0.06041
 Alpha virt. eigenvalues --    0.06144   0.07082   0.07385   0.08036   0.08951
 Alpha virt. eigenvalues --    0.11043   0.11387   0.13109   0.14333   0.14731

 Mulliken charges:
               1
     1  C    1.804958
     2  O   -1.229350
     3  O   -1.513852
     4  H    1.037471
     5  C   -0.484552
     6  H    0.181789
     7  H    0.230590
     8  H    0.230590
     9  H    0.144205
    10  H    0.164348
    11  H    0.151386
    12  H    0.151386
    13  H    0.164348
    14  H    0.144205
    15  C   -0.520304
    16  S   -0.136912
    17  C   -0.520304
 Sum of Mulliken charges =  -0.00000

 Dipole moment (field-independent basis, Debye):
    X=             -0.3714    Y=              0.2115    Z=              0.0000  Tot=              0.4274

 Test job not archived.
 1\1\GINC-SE173\SP\RHF\Aug-CC-pVDZ\C4H10O2S1\OHZDE\09-Apr-2025\0\\#t hf
  aug-cc-pvdz iop(5/13=1,5/36=2,99/5=2) pseudo=read geom=check guess=(r
 ead,tcheck) scf=(maxcycle=1)\\title\\0,1\C,0,0.08152563,1.86646531,0.\
 O,0,1.12794826,1.25988757,0.\O,0,-1.11612638,1.27040068,0.\H,0,-0.9946
 6015,0.28833063,0.\C,0,-0.03582077,3.36582142,0.\H,0,0.95204799,3.8127
 8193,0.\H,0,-0.5940149,3.69140047,-0.87678098\H,0,-0.5940149,3.6914004
 7,0.87678098\H,0,1.1750221,-2.35927326,-1.37919498\H,0,1.11679554,-0.5
 7410527,-1.31548339\H,0,-0.05675841,-1.47946862,-2.29940307\H,0,-0.056

 Normal termination of Gaussian 16 at Wed Apr  9 19:26:25 2025.
