 Gaussian 16, Revision C.01,

 ----------------------------------------------------------------------
 #t hf aug-cc-pvdz symm=none int=(grid=ultrafine) guess=(read,tcheck) s
 table=(opt,rrhf)
 ----------------------------------------------------------------------
 -----
 title
 -----
 Symbolic Z-matrix:
 Charge =  0 Multiplicity = 1

 SCF Done:  E(RHF) =  -989.356911297     A.U. after   13 cycles
 Normal termination of Gaussian 16 at Wed Apr  9 19:27:11 2025.
 Gaussian 16:  ES64L-G16RevC.01  3-Jul-2019

 ----------------------------------------------------------------------
 #t hf aug-cc-pvdz iop(5/13=1,5/36=2,99/5=2) pseudo=read geom=check gue
 ss=(read,tcheck) scf=(maxcycle=1)
 ----------------------------------------------------------------------
 -----
 title
 -----
 Structure from the checkpoint file:  "HB300SPXx10_1142_4.19_0.85_methanol_dimethyldisulfide_dimer_mol1.chk"
 Charge =  0 Multiplicity = 1

                         Standard orientation:
 ---------------------------------------------------------------------
 Center     Atomic      Atomic             Coordinates (Angstroms)
 Number     Number       Type             X           Y           Z
 ---------------------------------------------------------------------
      1          8           0        2.550783    0.118334   -0.139409
      2          1           0        1.737420    0.334743   -0.611180
      3          6           0        2.486143   -1.243630    0.254123
      4          1           0        3.394181   -1.460612    0.812550
      5          1           0        1.625773   -1.443859    0.899126
      6          1           0        2.440278   -1.917320   -0.606313
      7          1           0       -3.152848   -1.573678    0.573138
      8          1           0       -3.209237   -0.301841   -0.666827
      9          1           0       -2.886394    0.116596    1.037603
     10          1           0        0.857417    1.303971    1.387402
     11          1           0       -0.811642    1.952233    1.414515
     12          1           0        0.458231    2.787487    0.498513
     13          6           0       -2.732039   -0.620812    0.254935
     14         16           0       -0.957641   -0.920370   -0.018728
     15         16           0       -0.286324    0.892253   -0.705967
     16          6           0        0.086563    1.815354    0.819585
 ---------------------------------------------------------------------

 SCF Done:  E(RHF) =  -989.692401241     A.U. after    2 cycles

 The electronic state is 1-A.
 Alpha  occ. eigenvalues --  -93.98002 -93.97727 -20.51974 -11.27774 -11.27280
 Alpha  occ. eigenvalues --  -11.26437  -8.26050  -8.25747  -6.23848  -6.23634
 Alpha  occ. eigenvalues --   -6.23551  -6.23449  -6.23342  -6.23112  -1.42371
 Alpha  occ. eigenvalues --   -1.13012  -1.03552  -0.92873  -0.91337  -0.82018
 Alpha  occ. eigenvalues --   -0.68338  -0.62686  -0.61914  -0.61415  -0.59572
 Alpha  occ. eigenvalues --   -0.59419  -0.57679  -0.55025  -0.51006  -0.49047
 Alpha  occ. eigenvalues --   -0.45895  -0.42355  -0.37719  -0.36652
 Alpha virt. eigenvalues --    0.03140   0.03811   0.04353   0.04858   0.05831
 Alpha virt. eigenvalues --    0.06229   0.06831   0.07993   0.08152   0.09135
 Alpha virt. eigenvalues --    0.10097   0.11303   0.13133   0.13472   0.14033

 Mulliken charges:
               1
     1  O   -1.171120
     2  H    0.796203
     3  C    0.479240
     4  H   -0.003166
     5  H    0.098356
     6  H    0.064738
     7  H    0.167294
     8  H    0.230233
     9  H    0.176398
    10  H    0.114030
    11  H    0.145909
    12  H    0.186567
    13  C   -0.809869
    14  S    0.280033
    15  S   -0.235047
    16  C   -0.519801
 Sum of Mulliken charges =  -0.00000

 Dipole moment (field-independent basis, Debye):
    X=             -3.1917    Y=              0.2174    Z=              1.4156  Tot=              3.4983

 Test job not archived.
 1\1\GINC-SE036\SP\RHF\Aug-CC-pVDZ\C3H10O1S2\OHZDE\09-Apr-2025\0\\#t hf
  aug-cc-pvdz iop(5/13=1,5/36=2,99/5=2) pseudo=read geom=check guess=(r
 ead,tcheck) scf=(maxcycle=1)\\title\\0,1\O,0,-0.42925951,1.22968046,-2
 .50380826\H,0,-0.36156068,1.36890772,-1.5514469\C,0,-1.37991091,0.2017
 0921,-2.7351714\H,0,-1.41855104,0.0350798,-3.80950666\H,0,-1.09677682,
 -0.73598734,-2.24842974\H,0,-2.37984798,0.48334645,-2.39294418\H,0,-0.
 65843428,-2.48792519,2.18969002\H,0,-0.19300165,-0.9171447,2.87837261\
 H,0,0.97383384,-1.8555446,1.90765076\H,0,1.60158624,0.00784358,-1.5102

 Normal termination of Gaussian 16 at Wed Apr  9 19:27:16 2025.
