 Gaussian 16, Revision C.01,

 ----------------------------------------------------------------------
 #t hf aug-cc-pvdz symm=none int=(grid=ultrafine) guess=(read,tcheck) s
 table=(opt,rrhf)
 ----------------------------------------------------------------------
 -----
 title
 -----
 Symbolic Z-matrix:
 Charge =  0 Multiplicity = 1

 SCF Done:  E(RHF) =  -1054.89281451     A.U. after   15 cycles
 Normal termination of Gaussian 16 at Wed Apr  9 19:34:17 2025.
 Gaussian 16:  ES64L-G16RevC.01  3-Jul-2019

 ----------------------------------------------------------------------
 #t hf aug-cc-pvdz iop(5/13=1,5/36=2,99/5=2) pseudo=read geom=check gue
 ss=(read,tcheck) scf=(maxcycle=1)
 ----------------------------------------------------------------------
 -----
 title
 -----
 Structure from the checkpoint file:  "HB300SPXx10_1485_5.11_1.00_thioacetone_phosphineF2_dimer_mol1.chk"
 Charge =  0 Multiplicity = 1

                         Standard orientation:
 ---------------------------------------------------------------------
 Center     Atomic      Atomic             Coordinates (Angstroms)
 Number     Number       Type             X           Y           Z
 ---------------------------------------------------------------------
      1          1           0        0.630055    1.661242   -0.110337
      2          1           0        1.880130    1.917503    1.124567
      3          1           0        2.278225    2.147552   -0.562369
      4          1           0        3.836879   -1.177413    0.208168
      5          1           0        4.153978    0.415932   -0.511691
      6          6           0        1.681177    1.536703    0.119051
      7          6           0        2.118010    0.107775    0.036258
      8         16           0        1.088828   -1.118348   -0.256723
      9          6           0        3.582763   -0.123837    0.247863
     10          1           0        3.887534    0.289242    1.212757
     11         15           0       -1.965500   -0.251366    0.274017
     12          9           0       -3.566981   -0.096620    0.293562
     13          9           0       -1.650589    1.038933   -0.625596
     14          1           0       -1.939117   -1.194673   -0.794504
 ---------------------------------------------------------------------

 SCF Done:  E(RHF) =  -1055.30295575     A.U. after    2 cycles

 The electronic state is 1-A.
 Alpha  occ. eigenvalues --  -93.93420 -84.39781 -26.47193 -26.46387 -11.34235
 Alpha  occ. eigenvalues --  -11.26034 -11.25695  -8.21762  -6.85394  -6.19577
 Alpha  occ. eigenvalues --   -6.19382  -6.19173  -4.38192  -4.37584  -4.36525
 Alpha  occ. eigenvalues --   -1.61031  -1.56391  -1.14359  -0.98613  -0.97979
 Alpha  occ. eigenvalues --   -0.87095  -0.74340  -0.69821  -0.69615  -0.68129
 Alpha  occ. eigenvalues --   -0.63690  -0.63137  -0.63105  -0.62911  -0.60656
 Alpha  occ. eigenvalues --   -0.57355  -0.56855  -0.54691  -0.51441  -0.40868
 Alpha  occ. eigenvalues --   -0.37741  -0.34886
 Alpha virt. eigenvalues --    0.02980   0.03419   0.04270   0.05109   0.05841
 Alpha virt. eigenvalues --    0.06310   0.07169   0.07712   0.09147   0.09446
 Alpha virt. eigenvalues --    0.10371   0.11758   0.12432   0.14125   0.14415

 Mulliken charges:
               1
     1  H    0.005792
     2  H    0.299342
     3  H    0.282614
     4  H    0.172283
     5  H    0.257031
     6  C   -0.478201
     7  C   -0.536029
     8  S    0.173054
     9  C   -0.428496
    10  H    0.253756
    11  P    1.523636
    12  F   -0.790469
    13  F   -0.832665
    14  H    0.098352
 Sum of Mulliken charges =  -0.00000

 Dipole moment (field-independent basis, Debye):
    X=              3.9159    Y=              1.2484    Z=              0.6460  Tot=              4.1605

 Test job not archived.
 1\1\GINC-SE145\SP\RHF\Aug-CC-pVDZ\C3H7F2P1S1\OHZDE\09-Apr-2025\0\\#t h
 f aug-cc-pvdz iop(5/13=1,5/36=2,99/5=2) pseudo=read geom=check guess=(
 read,tcheck) scf=(maxcycle=1)\\title\\0,1\H,0,-0.82524406,-0.11851319,
 -2.18150719\H,0,-1.6981931,1.21808686,-2.95919937\H,0,-0.71897066,0.14
 764096,-3.93512177\H,0,1.41759528,3.22175764,-3.68330427\H,0,0.7352472
 6,2.04678605,-4.82844268\C,0,-0.77357806,0.63435768,-2.9583614\C,0,0.3
 925438,1.55581911,-2.78347778\S,0,1.39271927,1.4865874,-1.50157001\C,0
 ,0.57891903,2.56210758,-3.87735604\H,0,-0.33203334,3.15446018,-3.99493

 Normal termination of Gaussian 16 at Wed Apr  9 19:34:22 2025.
