 Gaussian 16, Revision C.01,

 ----------------------------------------------------------------------
 #t hf aug-cc-pvdz symm=none int=(grid=ultrafine) guess=(read,tcheck) s
 table=(opt,rrhf)
 ----------------------------------------------------------------------
 -----
 title
 -----
 Symbolic Z-matrix:
 Charge =  0 Multiplicity = 1

 SCF Done:  E(RHF) =  -3015.76250838     A.U. after   14 cycles
 Normal termination of Gaussian 16 at Wed Apr  9 19:30:06 2025.
 Gaussian 16:  ES64L-G16RevC.01  3-Jul-2019

 ----------------------------------------------------------------------
 #t hf aug-cc-pvdz iop(5/13=1,5/36=2,99/5=2) pseudo=read geom=check gue
 ss=(read,tcheck) scf=(maxcycle=1)
 ----------------------------------------------------------------------
 -----
 title
 -----
 Structure from the checkpoint file:  "HB300SPXx10_1344_4.39_0.95_hydrogenchloride_P4S3_dimer_mol1.chk"
 Charge =  0 Multiplicity = 1

                         Standard orientation:
 ---------------------------------------------------------------------
 Center     Atomic      Atomic             Coordinates (Angstroms)
 Number     Number       Type             X           Y           Z
 ---------------------------------------------------------------------
      1          1           0       -2.543851   -0.483477   -0.515884
      2         17           0       -3.612533    0.006807    0.016589
      3         16           0       -0.437335   -0.717050   -1.546575
      4         15           0       -0.165867    1.325119   -1.068206
      5         16           0       -0.207828   -0.728363    1.679374
      6         16           0        2.467872   -0.666236   -0.145572
      7         15           0        1.859320    1.353060   -0.084992
      8         15           0       -0.006939    1.309795    1.176922
      9         15           0        0.633057   -1.711031    0.005492
 ---------------------------------------------------------------------

 SCF Done:  E(RHF) =  -3016.19723951     A.U. after    2 cycles

 The electronic state is 1-A.
 Alpha  occ. eigenvalues -- -105.56807 -93.99944 -93.99394 -93.99351 -84.38099
 Alpha  occ. eigenvalues --  -84.34258 -84.34185 -84.34142 -10.61605  -8.28210
 Alpha  occ. eigenvalues --   -8.27711  -8.27661  -7.78591  -7.78214  -7.78209
 Alpha  occ. eigenvalues --   -6.84686  -6.81237  -6.81142  -6.81104  -6.25950
 Alpha  occ. eigenvalues --   -6.25777  -6.25577  -6.25455  -6.25406  -6.25278
 Alpha  occ. eigenvalues --   -6.25229  -6.25050  -6.25001  -4.36442  -4.36422
 Alpha  occ. eigenvalues --   -4.36099  -4.33496  -4.33105  -4.33025  -4.32669
 Alpha  occ. eigenvalues --   -4.32622  -4.32560  -4.32537  -4.32418  -4.32363
 Alpha  occ. eigenvalues --   -1.15183  -1.06299  -1.03957  -1.03765  -0.98081
 Alpha  occ. eigenvalues --   -0.76768  -0.73229  -0.73162  -0.62820  -0.55933
 Alpha  occ. eigenvalues --   -0.55372  -0.54934  -0.47643  -0.47490  -0.45239
 Alpha  occ. eigenvalues --   -0.44009  -0.43951  -0.43303  -0.43026  -0.39955
 Alpha  occ. eigenvalues --   -0.36503  -0.33231  -0.33117
 Alpha virt. eigenvalues --    0.03238   0.05265   0.05312   0.05438   0.05920
 Alpha virt. eigenvalues --    0.06268   0.06453   0.07608   0.08503   0.08941
 Alpha virt. eigenvalues --    0.10133   0.10307   0.10852   0.10952   0.11218

 Mulliken charges:
               1
     1  H    0.295402
     2  Cl  -0.189732
     3  S   -0.753054
     4  P    0.362980
     5  S   -0.581193
     6  S   -0.563699
     7  P    0.384205
     8  P    0.386956
     9  P    0.658135
 Sum of Mulliken charges =  -0.00000

 Dipole moment (field-independent basis, Debye):
    X=              1.7934    Y=              1.0334    Z=             -0.2454  Tot=              2.0844

 Test job not archived.
 1\1\GINC-SE037\SP\RHF\Aug-CC-pVDZ\Cl1H1P4S3\OHZDE\09-Apr-2025\0\\#t hf
  aug-cc-pvdz iop(5/13=1,5/36=2,99/5=2) pseudo=read geom=check guess=(r
 ead,tcheck) scf=(maxcycle=1)\\title\\0,1\H,0,-0.57388532,0.23171594,-0
 .00983813\Cl,0,-1.31085335,0.72448843,-0.94794305\S,0,0.82935649,-0.00
 876286,1.8682912\P,0,0.3223346,2.00024352,2.29233181\S,0,-2.29864467,-
 0.18015704,2.67189486\S,0,-0.02454863,-0.10272521,4.97757359\P,0,-0.27
 907411,1.92695803,4.46069737\P,0,-1.85445667,1.87354219,2.8505608\P,0,
 -0.4605042,-1.10400213,3.16419184\\Version=ES64L-G16RevC.01\State=1-A\

 Normal termination of Gaussian 16 at Wed Apr  9 19:30:12 2025.
