 Gaussian 16, Revision C.01,

 ----------------------------------------------------------------------
 #t hf aug-cc-pvdz symm=none int=(grid=ultrafine) guess=(read,tcheck) s
 table=(opt,rrhf)
 ----------------------------------------------------------------------
 -----
 title
 -----
 Symbolic Z-matrix:
 Charge =  0 Multiplicity = 1

 SCF Done:  E(RHF) =  -1121.34685846     A.U. after   13 cycles
 Normal termination of Gaussian 16 at Wed Apr  9 19:26:22 2025.
 Gaussian 16:  ES64L-G16RevC.01  3-Jul-2019

 ----------------------------------------------------------------------
 #t hf aug-cc-pvdz iop(5/13=1,5/36=2,99/5=2) pseudo=read geom=check gue
 ss=(read,tcheck) scf=(maxcycle=1)
 ----------------------------------------------------------------------
 -----
 title
 -----
 Structure from the checkpoint file:  "HB300SPXx10_1097_4.13_1.10_Nmethylacetamide_dimethyldisulfide_dimer_mol1.chk"
 Charge =  0 Multiplicity = 1

                         Standard orientation:
 ---------------------------------------------------------------------
 Center     Atomic      Atomic             Coordinates (Angstroms)
 Number     Number       Type             X           Y           Z
 ---------------------------------------------------------------------
      1          6           0       -1.919410    1.678041   -0.757776
      2          1           0       -1.256069    1.495978   -1.603351
      3          1           0       -1.344495    2.133826    0.046053
      4          1           0       -2.698930    2.361208   -1.083673
      5          6           0       -2.556574    0.361969   -0.356900
      6          8           0       -3.476265   -0.125581   -0.991965
      7          7           0       -2.020900   -0.224283    0.745642
      8          1           0       -1.184245    0.178340    1.134591
      9          6           0       -2.403131   -1.552802    1.176998
     10          1           0       -3.410869   -1.750991    0.825516
     11          1           0       -1.736131   -2.315304    0.769102
     12          1           0       -2.381409   -1.610918    2.263581
     13          1           0        2.879223   -2.197383   -1.744716
     14          1           0        3.465522   -1.949330   -0.085557
     15          1           0        3.666693   -0.669127   -1.312484
     16          1           0        1.368083    2.324301   -0.471754
     17          1           0        3.097198    1.905186   -0.349213
     18          1           0        2.290867    2.742986    0.989504
     19          6           0        3.022543   -1.465592   -0.950878
     20         16           0        1.363715   -0.834338   -0.547583
     21         16           0        1.721297    0.443594    1.015996
     22          6           0        2.163371    2.008012    0.195895
 ---------------------------------------------------------------------

 SCF Done:  E(RHF) =  -1121.81636844     A.U. after    2 cycles

 The electronic state is 1-A.
 Alpha  occ. eigenvalues --  -93.98280 -93.97961 -20.48952 -15.51123 -11.34211
 Alpha  occ. eigenvalues --  -11.28209 -11.27913 -11.25464 -11.23643  -8.26261
 Alpha  occ. eigenvalues --   -8.25957  -6.24074  -6.23864  -6.23765  -6.23644
 Alpha  occ. eigenvalues --   -6.23552  -6.23327  -1.43966  -1.22724  -1.13155
 Alpha  occ. eigenvalues --   -1.03831  -1.01477  -0.93446  -0.93240  -0.82205
 Alpha  occ. eigenvalues --   -0.80721  -0.69631  -0.66053  -0.63846  -0.63138
 Alpha  occ. eigenvalues --   -0.62066  -0.61613  -0.59912  -0.58523  -0.57707
 Alpha  occ. eigenvalues --   -0.55845  -0.55449  -0.54602  -0.51294  -0.50193
 Alpha  occ. eigenvalues --   -0.46157  -0.40929  -0.40022  -0.38110  -0.36988
 Alpha virt. eigenvalues --    0.02829   0.03151   0.03800   0.04223   0.05241
 Alpha virt. eigenvalues --    0.05547   0.05928   0.06624   0.07134   0.07840
 Alpha virt. eigenvalues --    0.08179   0.08658   0.08955   0.10490   0.11017

 Mulliken charges:
               1
     1  C   -0.429425
     2  H    0.265364
     3  H    0.148805
     4  H    0.169613
     5  C    0.440804
     6  O   -1.366605
     7  N    0.854543
     8  H    0.087241
     9  C   -0.398118
    10  H    0.063205
    11  H    0.144474
    12  H    0.103367
    13  H    0.169599
    14  H    0.208786
    15  H    0.178132
    16  H    0.135094
    17  H    0.154103
    18  H    0.199877
    19  C   -0.870952
    20  S    0.370041
    21  S    0.071029
    22  C   -0.698977
 Sum of Mulliken charges =  -0.00000

 Dipole moment (field-independent basis, Debye):
    X=              5.5077    Y=              1.4430    Z=              0.9438  Tot=              5.7713

 Test job not archived.
 1\1\GINC-SE105\SP\RHF\Aug-CC-pVDZ\C5H13N1O1S2\OHZDE\09-Apr-2025\0\\#t
 hf aug-cc-pvdz iop(5/13=1,5/36=2,99/5=2) pseudo=read geom=check guess=
 (read,tcheck) scf=(maxcycle=1)\\title\\0,1\C,0,-1.31055971,-0.36190707
 ,2.17525478\H,0,-0.76310857,0.57466921,2.28149083\H,0,-0.59510431,-1.1
 7658722,2.08130356\H,0,-1.91110445,-0.50300543,3.06969011\C,0,-2.23351
 851,-0.24400233,0.97818704\O,0,-3.28055753,0.37845097,1.03390772\N,0,-
 1.80028089,-0.8717422,-0.1463058\H,0,-0.86873727,-1.25332097,-0.144399
 63\C,0,-2.47826303,-0.73306099,-1.41840567\H,0,-3.52176476,-0.50262299

 Normal termination of Gaussian 16 at Wed Apr  9 19:26:34 2025.
