 Gaussian 16, Revision C.01,

 ----------------------------------------------------------------------
 #t hf aug-cc-pvdz symm=none int=(grid=ultrafine) guess=(read,tcheck) s
 table=(opt,rrhf)
 ----------------------------------------------------------------------
 -----
 title
 -----
 Symbolic Z-matrix:
 Charge =  0 Multiplicity = 1

 SCF Done:  E(RHF) =  -952.359826322     A.U. after   15 cycles

 1\1\GINC-SE028\Stability\RHF\Aug-CC-pVDZ\C4H10S2\OHZDE\09-Apr-2025\0\\
 #t hf aug-cc-pvdz symm=none int=(grid=ultrafine) guess=(read,tcheck) s
 table=(opt,rrhf)\\title\\0,1\H,0,1.94048627,-0.28311522,0.30003006\H,0
 ,2.70886397,-1.74966836,-0.33633756\H,0,2.5169729,-1.54996222,1.410513
 58\H,0,-0.19256655,-1.5118813,1.21090974\C,0,2.06439688,-1.35234501,0.
 4434425\S,0,0.46794236,-2.21627191,0.2804649\H,0,-2.66239305,0.5885555
 3,0.34341573\H,0,-2.72035754,1.04503117,-1.37275345\H,0,-2.07848635,-0
 .52165196,-0.91928033\H,0,0.9832283,1.52070905,-1.71187127\H,0,0.20668

 Normal termination of Gaussian 16 at Wed Apr  9 19:23:11 2025.
 Gaussian 16:  ES64L-G16RevC.01  3-Jul-2019

 ----------------------------------------------------------------------
 #t hf aug-cc-pvdz iop(5/13=1,5/36=2,99/5=2) pseudo=read geom=check gue
 ss=(read,tcheck) scf=(maxcycle=1)
 ----------------------------------------------------------------------
 -----
 title
 -----
 Structure from the checkpoint file:  "HB300SPXx10_1025_4.06_1.00_methanethiol_thioacetone_dimer_mol1.chk"
 Charge =  0 Multiplicity = 1

                         Standard orientation:
 ---------------------------------------------------------------------
 Center     Atomic      Atomic             Coordinates (Angstroms)
 Number     Number       Type             X           Y           Z
 ---------------------------------------------------------------------
      1          1           0        1.268420   -1.360060    0.703387
      2          1           0        2.791466   -0.800519    1.419899
      3          1           0        2.818487   -1.691656   -0.107628
      4          1           0        1.385955    0.237800   -1.375678
      5          6           0        2.260617   -0.975093    0.487706
      6         16           0        2.159715    0.637265   -0.355928
      7          1           0       -1.784490    1.305032   -1.647191
      8          1           0       -2.488189    2.015681   -0.178603
      9          1           0       -0.761367    2.138375   -0.452759
     10          1           0       -1.079725   -0.568254    2.144613
     11          1           0       -0.192032    0.919007    1.745176
     12          6           0       -1.625697    1.484472   -0.589385
     13          6           0       -1.409467    0.209964    0.166135
     14         16           0       -1.445568   -1.250938   -0.549952
     15          6           0       -1.137941    0.383716    1.628067
     16          1           0       -1.909948    1.005014    2.087737
 ---------------------------------------------------------------------

 SCF Done:  E(RHF) =  -952.652399714     A.U. after    2 cycles

 The electronic state is 1-A.
 Alpha  occ. eigenvalues --  -93.94892 -93.92254 -11.33253 -11.26579 -11.25031
 Alpha  occ. eigenvalues --  -11.25002  -8.22986  -8.20549  -6.20850  -6.20704
 Alpha  occ. eigenvalues --   -6.20477  -6.18369  -6.18177  -6.17953  -1.13448
 Alpha  occ. eigenvalues --   -1.06167  -0.97504  -0.97125  -0.88472  -0.73222
 Alpha  occ. eigenvalues --   -0.62802  -0.62084  -0.62078  -0.61498  -0.59601
 Alpha  occ. eigenvalues --   -0.56576  -0.53946  -0.53567  -0.50603  -0.46870
 Alpha  occ. eigenvalues --   -0.39384  -0.36658  -0.34320
 Alpha virt. eigenvalues --    0.03247   0.03612   0.04052   0.04625   0.05703
 Alpha virt. eigenvalues --    0.05910   0.06477   0.07090   0.07929   0.08747
 Alpha virt. eigenvalues --    0.09431   0.10213   0.11706   0.12221   0.13174

 Mulliken charges:
               1
     1  H    0.101134
     2  H    0.188608
     3  H    0.119172
     4  H    0.380287
     5  C   -0.628866
     6  S   -0.171826
     7  H    0.177664
     8  H    0.246302
     9  H    0.242515
    10  H    0.157813
    11  H    0.314409
    12  C   -0.476347
    13  C   -0.426923
    14  S   -0.011033
    15  C   -0.386876
    16  H    0.173968
 Sum of Mulliken charges =   0.00000

 Dipole moment (field-independent basis, Debye):
    X=             -0.2899    Y=              1.4235    Z=              1.6066  Tot=              2.1660

 Test job not archived.
 1\1\GINC-SE028\SP\RHF\Aug-CC-pVDZ\C4H10S2\OHZDE\09-Apr-2025\0\\#t hf a
 ug-cc-pvdz iop(5/13=1,5/36=2,99/5=2) pseudo=read geom=check guess=(rea
 d,tcheck) scf=(maxcycle=1)\\title\\0,1\H,0,1.94048627,-0.28311522,0.30
 003006\H,0,2.70886397,-1.74966836,-0.33633756\H,0,2.5169729,-1.5499622
 2,1.41051358\H,0,-0.19256655,-1.5118813,1.21090974\C,0,2.06439688,-1.3
 5234501,0.4434425\S,0,0.46794236,-2.21627191,0.2804649\H,0,-2.66239305
 ,0.58855553,0.34341573\H,0,-2.72035754,1.04503117,-1.37275345\H,0,-2.0
 7848635,-0.52165196,-0.91928033\H,0,0.9832283,1.52070905,-1.71187127\H

 Normal termination of Gaussian 16 at Wed Apr  9 19:23:16 2025.
