 Gaussian 16, Revision C.01,

 ----------------------------------------------------------------------
 #t hf aug-cc-pvdz symm=none int=(grid=ultrafine) guess=(read,tcheck) s
 table=(opt,rrhf)
 ----------------------------------------------------------------------
 -----
 title
 -----
 Symbolic Z-matrix:
 Charge =  0 Multiplicity = 1

 SCF Done:  E(RHF) =  -630.510521418     A.U. after   14 cycles

 1\1\GINC-SE036\Stability\RHF\Aug-CC-pVDZ\C6H10S1\OHZDE\09-Apr-2025\0\\
 #t hf aug-cc-pvdz symm=none int=(grid=ultrafine) guess=(read,tcheck) s
 table=(opt,rrhf)\\title\\0,1\C,0,2.59090187,-0.04968862,0.43961338\H,0
 ,1.93323189,0.27193926,-0.33858357\C,0,3.30609004,-0.41751171,1.325807
 27\H,0,3.94715573,-0.74121457,2.10714096\H,0,0.28752034,-1.677676,-0.5
 2770315\H,0,-1.1871398,-1.724509,-1.50318415\H,0,-1.43499141,-1.984053
 15,1.14946921\H,0,-1.75019318,1.8118317,0.22668582\H,0,-2.53202859,-0.
 88359649,0.31739442\H,0,-0.03834066,2.0024711,0.62093584\H,0,-1.543310

 Normal termination of Gaussian 16 at Wed Apr  9 19:22:19 2025.
 Gaussian 16:  ES64L-G16RevC.01  3-Jul-2019

 ----------------------------------------------------------------------
 #t hf aug-cc-pvdz iop(5/13=1,5/36=2,99/5=2) pseudo=read geom=check gue
 ss=(read,tcheck) scf=(maxcycle=1)
 ----------------------------------------------------------------------
 -----
 title
 -----
 Structure from the checkpoint file:  "HB300SPXx10_1004_4.04_0.95_ethyne_tetrahydrothiophene_dimer_mol1.chk"
 Charge =  0 Multiplicity = 1

                         Standard orientation:
 ---------------------------------------------------------------------
 Center     Atomic      Atomic             Coordinates (Angstroms)
 Number     Number       Type             X           Y           Z
 ---------------------------------------------------------------------
      1          6           0       -2.515498   -0.405522   -0.055330
      2          1           0       -1.644398   -1.022618   -0.011252
      3          6           0       -3.475323    0.307523   -0.104628
      4          1           0       -4.331578    0.932945   -0.148270
      5          1           0       -0.113514    0.036778   -1.766020
      6          1           0        1.577345   -0.376194   -2.080390
      7          1           0        1.027593    2.120694   -1.287492
      8          1           0        1.785387   -0.061468    1.878506
      9          1           0        2.372591    1.282390   -0.516085
     10          1           0        0.044582   -0.281725    2.086590
     11          1           0        0.948569    2.133565    1.316643
     12          1           0       -0.484927    1.464810    0.541942
     13         16           0        0.831923   -1.293512    0.027537
     14          6           0        0.876295   -0.043826   -1.319637
     15          6           0        1.291190    1.268839   -0.660273
     16          6           0        0.584193    1.316825    0.693382
     17          6           0        0.823739   -0.032672    1.370692
 ---------------------------------------------------------------------

 SCF Done:  E(RHF) =  -630.824046384     A.U. after    2 cycles

 The electronic state is 1-A.
 Alpha  occ. eigenvalues --  -93.93556 -11.26441 -11.26405 -11.24379 -11.24170
 Alpha  occ. eigenvalues --  -11.23983 -11.23932  -8.21686  -6.19487  -6.19369
 Alpha  occ. eigenvalues --   -6.19152  -1.14125  -1.02969  -0.99245  -0.98729
 Alpha  occ. eigenvalues --   -0.80194  -0.79997  -0.76221  -0.68932  -0.66383
 Alpha  occ. eigenvalues --   -0.65239  -0.60996  -0.55814  -0.51720  -0.50405
 Alpha  occ. eigenvalues --   -0.49002  -0.48983  -0.43501  -0.41466  -0.41411
 Alpha  occ. eigenvalues --   -0.34676
 Alpha virt. eigenvalues --    0.03198   0.03505   0.03796   0.04569   0.05268
 Alpha virt. eigenvalues --    0.06342   0.06566   0.06827   0.07954   0.08693
 Alpha virt. eigenvalues --    0.10348   0.11377   0.12509   0.13501   0.14152

 Mulliken charges:
               1
     1  C    0.595989
     2  H   -0.139786
     3  C   -0.070512
     4  H   -0.300442
     5  H    0.111784
     6  H    0.145639
     7  H    0.131892
     8  H    0.120080
     9  H    0.097015
    10  H    0.116732
    11  H    0.145952
    12  H    0.102503
    13  S    0.304963
    14  C   -0.420252
    15  C   -0.243605
    16  C   -0.306246
    17  C   -0.391705
 Sum of Mulliken charges =  -0.00000

 Dipole moment (field-independent basis, Debye):
    X=              0.4249    Y=              2.3358    Z=             -0.0021  Tot=              2.3741

 Test job not archived.
 1\1\GINC-SE036\SP\RHF\Aug-CC-pVDZ\C6H10S1\OHZDE\09-Apr-2025\0\\#t hf a
 ug-cc-pvdz iop(5/13=1,5/36=2,99/5=2) pseudo=read geom=check guess=(rea
 d,tcheck) scf=(maxcycle=1)\\title\\0,1\C,0,2.59090187,-0.04968862,0.43
 961338\H,0,1.93323189,0.27193926,-0.33858357\C,0,3.30609004,-0.4175117
 1,1.32580727\H,0,3.94715573,-0.74121457,2.10714096\H,0,0.28752034,-1.6
 77676,-0.52770315\H,0,-1.1871398,-1.724509,-1.50318415\H,0,-1.43499141
 ,-1.98405315,1.14946921\H,0,-1.75019318,1.8118317,0.22668582\H,0,-2.53
 202859,-0.88359649,0.31739442\H,0,-0.03834066,2.0024711,0.62093584\H,0

 Normal termination of Gaussian 16 at Wed Apr  9 19:22:26 2025.
