 Gaussian 16, Revision C.01,

 ----------------------------------------------------------------------
 #t hf aug-cc-pvdz symm=none int=(grid=ultrafine) guess=(read,tcheck) s
 table=(opt,rrhf)
 ----------------------------------------------------------------------
 -----
 title
 -----
 Symbolic Z-matrix:
 Charge =  0 Multiplicity = 1

 SCF Done:  E(RHF) =  -179.252181807     A.U. after   11 cycles
 Normal termination of Gaussian 16 at Wed Apr  9 19:31:46 2025.
 Gaussian 16:  ES64L-G16RevC.01  3-Jul-2019

 ----------------------------------------------------------------------
 #t hf aug-cc-pvdz iop(5/13=1,5/36=2,99/5=2) pseudo=read geom=check gue
 ss=(read,tcheck) scf=(maxcycle=1)
 ----------------------------------------------------------------------
 -----
 title
 -----
 Structure from the checkpoint file:  "HB300SPXx10_1421_5.05_0.80_methane_methylfluoride_dimer_mol1.chk"
 Charge =  0 Multiplicity = 1

                         Standard orientation:
 ---------------------------------------------------------------------
 Center     Atomic      Atomic             Coordinates (Angstroms)
 Number     Number       Type             X           Y           Z
 ---------------------------------------------------------------------
      1          6           0        1.945463   -0.455706    0.000000
      2          1           0        0.952713   -0.898360    0.000000
      3          1           0        2.071009    0.159816    0.888289
      4          1           0        2.071009    0.159816   -0.888289
      5          1           0        2.696027   -1.242648    0.000000
      6          1           0        0.000000    1.183468    0.000000
      7          1           0       -1.544733    1.264860   -0.893116
      8          1           0       -1.544733    1.264860    0.893116
      9          6           0       -1.047868    0.889633    0.000000
     10          9           0       -1.120762   -0.499486    0.000000
 ---------------------------------------------------------------------

 SCF Done:  E(RHF) =  -179.439518799     A.U. after    2 cycles

 The electronic state is 1-A'.
 Alpha  occ. eigenvalues --  -26.44628 -11.31826 -11.21030  -1.56673  -0.95387
 Alpha  occ. eigenvalues --   -0.94095  -0.69033  -0.68491  -0.66379  -0.55270
 Alpha  occ. eigenvalues --   -0.54663  -0.53958  -0.52572  -0.51854
 Alpha virt. eigenvalues --    0.03540   0.04478   0.04673   0.05578   0.07672
 Alpha virt. eigenvalues --    0.08075   0.08607   0.12746   0.14285   0.15304
 Alpha virt. eigenvalues --    0.16191   0.16379   0.16691   0.18679   0.19747

 Mulliken charges:
               1
     1  C   -0.272142
     2  H    0.107258
     3  H    0.094497
     4  H    0.094497
     5  H   -0.021910
     6  H    0.060404
     7  H    0.108616
     8  H    0.108616
     9  C    0.406939
    10  F   -0.686774
 Sum of Mulliken charges =  -0.00000

 Dipole moment (field-independent basis, Debye):
    X=             -0.0866    Y=              1.8126    Z=              0.0000  Tot=              1.8147

 Test job not archived.
 1\1\GINC-SE028\SP\RHF\Aug-CC-pVDZ\C2H7F1\OHZDE\09-Apr-2025\0\\#t hf au
 g-cc-pvdz iop(5/13=1,5/36=2,99/5=2) pseudo=read geom=check guess=(read
 ,tcheck) scf=(maxcycle=1)\\title\\0,1\C,0,-0.04535814,2.45943313,0.\H,
 0,0.5973154,1.58281115,0.\H,0,-0.67350822,2.45190828,0.8882892\H,0,-0.
 67350822,2.45190828,-0.8882892\H,0,0.56496805,3.35950257,0.\H,0,-1.235
 81385,0.21120375,0.\H,0,-0.98853622,-1.31577936,-0.89311616\H,0,-0.988
 53622,-1.31577936,0.89311616\C,0,-0.72692795,-0.75077471,0.\F,0,0.6461
 667,-0.52811586,0.\\Version=ES64L-G16RevC.01\State=1-A'\HF=-179.439518

 Normal termination of Gaussian 16 at Wed Apr  9 19:31:48 2025.
