 Gaussian 16, Revision C.01,

 ----------------------------------------------------------------------
 #t hf aug-cc-pvdz symm=none int=(grid=ultrafine) guess=(read,tcheck) s
 table=(opt,rrhf)
 ----------------------------------------------------------------------
 -----
 title
 -----
 Symbolic Z-matrix:
 Charge =  0 Multiplicity = 1

 SCF Done:  E(RHF) =  -977.985190666     A.U. after   13 cycles
 Normal termination of Gaussian 16 at Wed Apr  9 19:33:27 2025.
 Gaussian 16:  ES64L-G16RevC.01  3-Jul-2019

 ----------------------------------------------------------------------
 #t hf aug-cc-pvdz iop(5/13=1,5/36=2,99/5=2) pseudo=read geom=check gue
 ss=(read,tcheck) scf=(maxcycle=1)
 ----------------------------------------------------------------------
 -----
 title
 -----
 Structure from the checkpoint file:  "HB300SPXx10_1442_5.07_0.85_methanethiol_phosphineF2_dimer_mol1.chk"
 Charge =  0 Multiplicity = 1

                         Standard orientation:
 ---------------------------------------------------------------------
 Center     Atomic      Atomic             Coordinates (Angstroms)
 Number     Number       Type             X           Y           Z
 ---------------------------------------------------------------------
      1          1           0        1.255817    1.638096   -0.041794
      2          1           0        1.827221    0.927517   -1.557687
      3          1           0        2.994843    1.311385   -0.283571
      4          1           0        1.886710   -0.470753    1.431440
      5          6           0        1.985137    0.966500   -0.483418
      6         16           0        1.746420   -0.734427    0.123616
      7         15           0       -1.073274   -0.223897   -0.289993
      8          9           0       -0.747649    0.961295    0.741343
      9          9           0       -2.674973   -0.162134   -0.177003
     10          1           0       -0.915427   -1.288420    0.645102
 ---------------------------------------------------------------------

 SCF Done:  E(RHF) =  -978.318168970     A.U. after    2 cycles

 The electronic state is 1-A.
 Alpha  occ. eigenvalues --  -93.96663 -84.39977 -26.47606 -26.46399 -11.27703
 Alpha  occ. eigenvalues --   -8.24838  -6.85585  -6.22674  -6.22528  -6.22336
 Alpha  occ. eigenvalues --   -4.38424  -4.37781  -4.36722  -1.61438  -1.56718
 Alpha  occ. eigenvalues --   -1.08049  -0.90377  -0.87261  -0.70343  -0.70169
 Alpha  occ. eigenvalues --   -0.68919  -0.63964  -0.63275  -0.62175  -0.59387
 Alpha  occ. eigenvalues --   -0.57338  -0.55083  -0.48262  -0.39543  -0.36538
 Alpha virt. eigenvalues --    0.03519   0.04288   0.04884   0.05921   0.07012
 Alpha virt. eigenvalues --    0.08636   0.09853   0.10196   0.11492   0.12961
 Alpha virt. eigenvalues --    0.13948   0.15391   0.16148   0.16387   0.16985

 Mulliken charges:
               1
     1  H    0.152677
     2  H    0.205842
     3  H    0.093131
     4  H    0.388332
     5  C   -0.612634
     6  S   -0.258667
     7  P    1.530086
     8  F   -0.814652
     9  F   -0.781322
    10  H    0.097208
 Sum of Mulliken charges =  -0.00000

 Dipole moment (field-independent basis, Debye):
    X=              2.1663    Y=              0.3752    Z=              0.0849  Tot=              2.2002

 Test job not archived.
 1\1\GINC-SE041\SP\RHF\Aug-CC-pVDZ\C1H5F2P1S1\OHZDE\09-Apr-2025\0\\#t h
 f aug-cc-pvdz iop(5/13=1,5/36=2,99/5=2) pseudo=read geom=check guess=(
 read,tcheck) scf=(maxcycle=1)\\title\\0,1\H,0,-1.72434823,-0.02735536,
 -1.47402619\H,0,-1.29643549,-1.41515971,-2.4840979\H,0,-1.57230153,0.1
 6002765,-3.24353895\H,0,0.52779021,1.28305094,-1.94983564\C,0,-1.18500
 823,-0.34129171,-2.36202164\S,0,0.60124692,-0.03772908,-2.17289215\P,0
 ,0.25217644,-1.11432326,0.49196849\F,0,-0.7854281,0.10688946,0.5718592
 \F,0,0.33129749,-1.42185927,2.0671457\H,0,1.43022217,-0.31225696,0.454

 Normal termination of Gaussian 16 at Wed Apr  9 19:33:30 2025.
