 Gaussian 16, Revision C.01,

 ----------------------------------------------------------------------
 #t hf aug-cc-pvdz symm=none int=(grid=ultrafine) guess=(read,tcheck) s
 table=(opt,rrhf)
 ----------------------------------------------------------------------
 -----
 title
 -----
 Symbolic Z-matrix:
 Charge =  0 Multiplicity = 1

 SCF Done:  E(RHF) =  -1017.02800497     A.U. after   12 cycles
 Normal termination of Gaussian 16 at Wed Apr  9 19:31:02 2025.
 Gaussian 16:  ES64L-G16RevC.01  3-Jul-2019

 ----------------------------------------------------------------------
 #t hf aug-cc-pvdz iop(5/13=1,5/36=2,99/5=2) pseudo=read geom=check gue
 ss=(read,tcheck) scf=(maxcycle=1)
 ----------------------------------------------------------------------
 -----
 title
 -----
 Structure from the checkpoint file:  "HB300SPXx10_1387_5.01_1.10_dimethylsulfide_phosphineF2_dimer_mol1.chk"
 Charge =  0 Multiplicity = 1

                         Standard orientation:
 ---------------------------------------------------------------------
 Center     Atomic      Atomic             Coordinates (Angstroms)
 Number     Number       Type             X           Y           Z
 ---------------------------------------------------------------------
      1          1           0       -0.776637    0.823137    1.424692
      2          1           0       -2.489167    1.317527    1.438482
      3          1           0       -1.296927    2.245231    0.511132
      4          1           0       -2.458975   -2.035192   -0.694452
      5          1           0       -3.149146   -1.257516    0.737579
      6          1           0       -1.420365   -1.686271    0.699223
      7          6           0       -1.585438    1.248843    0.835716
      8         16           0       -1.880535    0.265758   -0.656146
      9          6           0       -2.262751   -1.330310    0.109958
     10         15           0        2.228993   -0.333620   -0.346259
     11          9           0        1.412691   -0.953494    0.884578
     12          9           0        1.937331    1.214090   -0.084467
     13          1           0        1.183807   -0.511304   -1.299480
 ---------------------------------------------------------------------

 SCF Done:  E(RHF) =  -1017.40224475     A.U. after    2 cycles

 The electronic state is 1-A.
 Alpha  occ. eigenvalues --  -93.93763 -84.41196 -26.48645 -26.48550 -11.25971
 Alpha  occ. eigenvalues --  -11.25707  -8.21877  -6.86896  -6.19713  -6.19554
 Alpha  occ. eigenvalues --   -6.19328  -4.39731  -4.38982  -4.38036  -1.62834
 Alpha  occ. eigenvalues --   -1.58348  -1.08231  -0.95706  -0.88621  -0.82487
 Alpha  occ. eigenvalues --   -0.71674  -0.71283  -0.69732  -0.65436  -0.62560
 Alpha  occ. eigenvalues --   -0.61005  -0.60843  -0.58460  -0.57917  -0.57033
 Alpha  occ. eigenvalues --   -0.50248  -0.44224  -0.38758  -0.34213
 Alpha virt. eigenvalues --    0.03860   0.04241   0.04789   0.05591   0.06490
 Alpha virt. eigenvalues --    0.06824   0.07554   0.08541   0.09586   0.09757
 Alpha virt. eigenvalues --    0.12038   0.13778   0.14654   0.15982   0.16180

 Mulliken charges:
               1
     1  H    0.166806
     2  H    0.157446
     3  H    0.137516
     4  H    0.138296
     5  H    0.170648
     6  H    0.146212
     7  C   -0.639452
     8  S    0.350180
     9  C   -0.653668
    10  P    1.394466
    11  F   -0.744548
    12  F   -0.733407
    13  H    0.109504
 Sum of Mulliken charges =  -0.00000

 Dipole moment (field-independent basis, Debye):
    X=              0.0955    Y=             -1.0414    Z=              0.4095  Tot=              1.1231

 Test job not archived.
 1\1\GINC-SE114\SP\RHF\Aug-CC-pVDZ\C2H7F2P1S1\OHZDE\09-Apr-2025\0\\#t h
 f aug-cc-pvdz iop(5/13=1,5/36=2,99/5=2) pseudo=read geom=check guess=(
 read,tcheck) scf=(maxcycle=1)\\title\\0,1\H,0,0.35324965,2.18742239,-0
 .72380577\H,0,0.23256961,2.54349189,-2.46622469\H,0,1.47961489,1.43776
 879,-1.86264863\H,0,-2.97879656,0.33269977,-1.6977403\H,0,-2.43534977,
 1.89515642,-2.32640837\H,0,-2.24831697,1.5140911,-0.59615001\C,0,0.456
 3691,1.7777672,-1.72571744\S,0,-0.61885679,0.337269,-1.94490696\C,0,-2
 .22218849,1.10820804,-1.60517522\P,0,0.23375241,-0.16100516,2.10086604

 Normal termination of Gaussian 16 at Wed Apr  9 19:31:06 2025.
