 Gaussian 16, Revision C.01,

 ----------------------------------------------------------------------
 #t hf aug-cc-pvdz symm=none int=(grid=ultrafine) guess=(read,tcheck) s
 table=(opt,rrhf)
 ----------------------------------------------------------------------
 -----
 title
 -----
 Symbolic Z-matrix:
 Charge =  0 Multiplicity = 1

 SCF Done:  E(RHF) =  -1334.38143839     A.U. after   13 cycles
 Normal termination of Gaussian 16 at Wed Apr  9 19:28:50 2025.
 Gaussian 16:  ES64L-G16RevC.01  3-Jul-2019

 ----------------------------------------------------------------------
 #t hf aug-cc-pvdz iop(5/13=1,5/36=2,99/5=2) pseudo=read geom=check gue
 ss=(read,tcheck) scf=(maxcycle=1)
 ----------------------------------------------------------------------
 -----
 title
 -----
 Structure from the checkpoint file:  "HB300SPXx10_1311_4.36_0.80_hydrogenchloride_dimethyldisulfide_dimer_mol1.chk"
 Charge =  0 Multiplicity = 1

                         Standard orientation:
 ---------------------------------------------------------------------
 Center     Atomic      Atomic             Coordinates (Angstroms)
 Number     Number       Type             X           Y           Z
 ---------------------------------------------------------------------
      1          1           0       -1.484257   -0.185541    0.399754
      2         17           0       -2.622680   -0.588103   -0.096982
      3          1           0        3.518151   -1.072888   -0.526981
      4          1           0        3.181045   -0.138855    0.946090
      5          1           0        3.035767    0.627754   -0.659440
      6          1           0       -0.750194    1.323473   -1.414043
      7          1           0        0.728292    2.226863   -0.976546
      8          1           0       -0.809786    2.588868   -0.167140
      9          6           0        2.900228   -0.288597   -0.092029
     10         16           0        1.184408   -0.883855   -0.209223
     11         16           0        0.126189    0.605747    0.724995
     12          6           0       -0.200730    1.801566   -0.608862
 ---------------------------------------------------------------------

 SCF Done:  E(RHF) =  -1334.67438955     A.U. after    2 cycles

 The electronic state is 1-A.
 Alpha  occ. eigenvalues -- -105.52970 -93.99450 -93.98677 -11.28553 -11.28530
 Alpha  occ. eigenvalues --  -10.57957  -8.27598  -8.26686  -7.74915  -7.74584
 Alpha  occ. eigenvalues --   -7.74582  -6.25370  -6.25164  -6.25018  -6.24492
 Alpha  occ. eigenvalues --   -6.24273  -6.24039  -1.14595  -1.05393  -1.02671
 Alpha  occ. eigenvalues --   -0.93901  -0.83393  -0.65359  -0.63301  -0.62231
 Alpha  occ. eigenvalues --   -0.60454  -0.59367  -0.55927  -0.52153  -0.46599
 Alpha  occ. eigenvalues --   -0.44614  -0.44568  -0.38427  -0.37764
 Alpha virt. eigenvalues --    0.02860   0.03596   0.04497   0.05195   0.06502
 Alpha virt. eigenvalues --    0.07074   0.07867   0.08539   0.09809   0.11835
 Alpha virt. eigenvalues --    0.12714   0.13779   0.14064   0.14274   0.14980

 Mulliken charges:
               1
     1  H    0.674044
     2  Cl  -0.268011
     3  H    0.171777
     4  H    0.228138
     5  H    0.188388
     6  H    0.145392
     7  H    0.146787
     8  H    0.189759
     9  C   -0.736043
    10  S    0.246704
    11  S   -0.463704
    12  C   -0.523233
 Sum of Mulliken charges =  -0.00000

 Dipole moment (field-independent basis, Debye):
    X=              4.2579    Y=              2.4923    Z=             -0.5198  Tot=              4.9610

 Test job not archived.
 1\1\GINC-SE036\SP\RHF\Aug-CC-pVDZ\C2H7Cl1S2\OHZDE\09-Apr-2025\0\\#t hf
  aug-cc-pvdz iop(5/13=1,5/36=2,99/5=2) pseudo=read geom=check guess=(r
 ead,tcheck) scf=(maxcycle=1)\\title\\0,1\H,0,-0.26068265,0.62653872,-1
 .61580209\Cl,0,0.10581098,1.51670262,-2.49790267\H,0,1.93699099,-1.798
 77285,2.37899437\H,0,0.3386524,-2.41736872,1.91139591\H,0,0.48386582,-
 0.87071252,2.7907656\H,0,-0.45925239,2.07398723,0.37700918\H,0,-1.1487
 0239,1.19900195,1.77432687\H,0,-2.16587444,1.57707249,0.36923164\C,0,0
 .93693428,-1.52169194,2.04848456\S,0,1.15856779,-0.65394795,0.46418564

 Normal termination of Gaussian 16 at Wed Apr  9 19:28:54 2025.
