 Gaussian 16, Revision C.01,

 ----------------------------------------------------------------------
 #t hf aug-cc-pvdz symm=none int=(grid=ultrafine) guess=(read,tcheck) s
 table=(opt,rrhf)
 ----------------------------------------------------------------------
 -----
 title
 -----
 Symbolic Z-matrix:
 Charge =  0 Multiplicity = 1

 SCF Done:  E(RHF) =  -591.457006671     A.U. after   14 cycles
 Normal termination of Gaussian 16 at Wed Apr  9 19:22:59 2025.
 Gaussian 16:  ES64L-G16RevC.01  3-Jul-2019

 ----------------------------------------------------------------------
 #t hf aug-cc-pvdz iop(5/13=1,5/36=2,99/5=2) pseudo=read geom=check gue
 ss=(read,tcheck) scf=(maxcycle=1)
 ----------------------------------------------------------------------
 -----
 title
 -----
 Structure from the checkpoint file:  "HB300SPXx10_1013_4.05_0.90_ethyne_thioacetone_dimer_mol1.chk"
 Charge =  0 Multiplicity = 1

                         Standard orientation:
 ---------------------------------------------------------------------
 Center     Atomic      Atomic             Coordinates (Angstroms)
 Number     Number       Type             X           Y           Z
 ---------------------------------------------------------------------
      1          6           0        0.221433   -2.772801    0.000000
      2          1           0       -0.450154   -1.943488    0.000000
      3          6           0        0.991666   -3.688682    0.000000
      4          1           0        1.669124   -4.505441    0.000000
      5          1           0       -1.070487    3.136922    0.000000
      6          1           0        0.476998    3.155922    0.874719
      7          1           0        0.476998    3.155922   -0.874719
      8          1           0        1.371157   -0.398846    0.000000
      9          1           0        1.929921    1.041497   -0.874314
     10          6           0       -0.050885    2.767393    0.000000
     11          6           0        0.000000    1.269607    0.000000
     12         16           0       -1.348860    0.359552    0.000000
     13          6           0        1.379168    0.685014    0.000000
     14          1           0        1.929921    1.041497    0.874314
 ---------------------------------------------------------------------

 SCF Done:  E(RHF) =  -591.724098011     A.U. after    2 cycles

 The electronic state is 1-A'.
 Alpha  occ. eigenvalues --  -93.92864 -11.33825 -11.25702 -11.25424 -11.23732
 Alpha  occ. eigenvalues --  -11.23297  -8.21208  -6.19022  -6.18829  -6.18618
 Alpha  occ. eigenvalues --   -1.13975  -1.02351  -0.98171  -0.97624  -0.75900
 Alpha  occ. eigenvalues --   -0.73669  -0.67970  -0.62791  -0.62688  -0.62491
 Alpha  occ. eigenvalues --   -0.57026  -0.54484  -0.51187  -0.40889  -0.40886
 Alpha  occ. eigenvalues --   -0.39949  -0.35236
 Alpha virt. eigenvalues --    0.03039   0.03570   0.03601   0.04851   0.05865
 Alpha virt. eigenvalues --    0.06181   0.06680   0.07439   0.08782   0.09783
 Alpha virt. eigenvalues --    0.10486   0.11937   0.12874   0.13357   0.14073

 Mulliken charges:
               1
     1  C    0.487397
     2  H   -0.206286
     3  C    0.028573
     4  H   -0.263076
     5  H    0.176313
     6  H    0.253677
     7  H    0.253677
     8  H   -0.017039
     9  H    0.300766
    10  C   -0.504100
    11  C   -0.531608
    12  S    0.110996
    13  C   -0.390056
    14  H    0.300766
 Sum of Mulliken charges =  -0.00000

 Dipole moment (field-independent basis, Debye):
    X=              2.7027    Y=              2.4338    Z=             -0.0000  Tot=              3.6370

 Test job not archived.
 1\1\GINC-SE045\SP\RHF\Aug-CC-pVDZ\C5H8S1\OHZDE\09-Apr-2025\0\\#t hf au
 g-cc-pvdz iop(5/13=1,5/36=2,99/5=2) pseudo=read geom=check guess=(read
 ,tcheck) scf=(maxcycle=1)\\title\\0,1\C,0,-0.20751211,-2.93011645,0.\H
 ,0,-0.70775465,-1.98748922,0.\C,0,0.37296237,-3.97660953,0.\H,0,0.8813
 7254,-4.90804053,0.\H,0,-0.34315673,3.11765044,0.\H,0,1.17929636,2.839
 7913,0.87471889\H,0,1.17929636,2.8397913,-0.87471889\H,0,1.37577424,-0
 .8204399,0.\H,0,2.20016325,0.48615374,-0.87431367\C,0,0.58674956,2.559
 60608,0.\C,0,0.34970744,1.07982166,0.\S,0,-1.14853329,0.44507754,0.\C,

 Normal termination of Gaussian 16 at Wed Apr  9 19:23:03 2025.
