 Gaussian 16, Revision C.01,

 ----------------------------------------------------------------------
 #t hf aug-cc-pvdz symm=none int=(grid=ultrafine) guess=(read,tcheck) s
 table=(opt,rrhf)
 ----------------------------------------------------------------------
 -----
 title
 -----
 Symbolic Z-matrix:
 Charge =  0 Multiplicity = 1

 SCF Done:  E(RHF) =  -605.480974314     A.U. after   13 cycles
 Normal termination of Gaussian 16 at Wed Apr  9 04:10:12 2025.
 Gaussian 16:  ES64L-G16RevC.01  3-Jul-2019

 ----------------------------------------------------------------------
 #t hf aug-cc-pvdz iop(5/13=1,5/36=2,99/5=2) pseudo=read geom=check gue
 ss=(read,tcheck) scf=(maxcycle=1)
 ----------------------------------------------------------------------
 -----
 title
 -----
 Structure from the checkpoint file:  "HB300SPXx10_117_1.12_1.10_sulfane_methylcyanate_dimer_mol1.chk"
 Charge =  0 Multiplicity = 1

                         Standard orientation:
 ---------------------------------------------------------------------
 Center     Atomic      Atomic             Coordinates (Angstroms)
 Number     Number       Type             X           Y           Z
 ---------------------------------------------------------------------
      1          1           0        1.611155    0.889066    0.015205
      2          1           0        2.723793   -0.190334    1.187252
      3         16           0        2.423214   -0.173674   -0.119625
      4          1           0       -1.789336   -1.378828    1.310175
      5          1           0       -1.999629   -2.269863   -0.224627
      6          1           0       -0.409028   -1.548828    0.179103
      7          6           0       -1.487558   -1.453045    0.268702
      8          8           0       -1.924080   -0.251256   -0.441632
      9          6           0       -1.380011    0.844441   -0.063211
     10          7           0       -0.901475    1.848463    0.249571
 ---------------------------------------------------------------------

 SCF Done:  E(RHF) =  -605.747577147     A.U. after    2 cycles

 The electronic state is 1-A.
 Alpha  occ. eigenvalues --  -93.96250 -20.64748 -15.51161 -11.34728 -11.33882
 Alpha  occ. eigenvalues --   -8.24342  -6.22220  -6.22104  -6.21861  -1.57697
 Alpha  occ. eigenvalues --   -1.23688  -1.01857  -1.01535  -0.80449  -0.71282
 Alpha  occ. eigenvalues --   -0.70049  -0.61750  -0.59763  -0.59087  -0.58619
 Alpha  occ. eigenvalues --   -0.50953  -0.49264  -0.46753  -0.39282
 Alpha virt. eigenvalues --    0.02808   0.04137   0.04811   0.05868   0.07418
 Alpha virt. eigenvalues --    0.09024   0.10605   0.11145   0.11763   0.12717
 Alpha virt. eigenvalues --    0.13842   0.14105   0.14785   0.15222   0.16011

 Mulliken charges:
               1
     1  H    0.361758
     2  H    0.268562
     3  S   -0.628717
     4  H    0.166433
     5  H    0.051720
     6  H    0.153987
     7  C    0.357880
     8  O   -1.030732
     9  C   -0.417906
    10  N    0.717015
 Sum of Mulliken charges =  -0.00000

 Dipole moment (field-independent basis, Debye):
    X=             -1.2362    Y=             -4.5059    Z=              0.9977  Tot=              4.7778

 Test job not archived.
 1\1\GINC-SE054\SP\RHF\Aug-CC-pVDZ\C2H5N1O1S1\OHZDE\09-Apr-2025\0\\#t h
 f aug-cc-pvdz iop(5/13=1,5/36=2,99/5=2) pseudo=read geom=check guess=(
 read,tcheck) scf=(maxcycle=1)\\title\\0,1\H,0,1.70020261,0.23216325,0.
 14198181\H,0,1.83071194,2.07603691,0.74186388\S,0,1.65222468,0.8789214
 7,1.31945248\H,0,-2.40508995,0.94944197,-0.86584696\H,0,-3.08532736,-0
 .01895332,0.47328448\H,0,-1.41430946,0.61880531,0.59103686\C,0,-2.1864
 0063,0.23942119,-0.07256853\O,0,-1.73335518,-1.01731073,-0.66821725\C,
 0,-0.6283025,-0.95847487,-1.31254943\N,0,0.36998546,-0.9401713,-1.8939

 Normal termination of Gaussian 16 at Wed Apr  9 04:10:15 2025.
