 Gaussian 16, Revision C.01,

 ----------------------------------------------------------------------
 #t hf aug-cc-pvdz symm=none int=(grid=ultrafine) guess=(read,tcheck) s
 table=(opt,rrhf)
 ----------------------------------------------------------------------
 -----
 title
 -----
 Symbolic Z-matrix:
 Charge =  0 Multiplicity = 1

 SCF Done:  E(RHF) =  -800.719633341     A.U. after   14 cycles
 Normal termination of Gaussian 16 at Wed Apr  9 19:28:13 2025.
 Gaussian 16:  ES64L-G16RevC.01  3-Jul-2019

 ----------------------------------------------------------------------
 #t hf aug-cc-pvdz iop(5/13=1,5/36=2,99/5=2) pseudo=read geom=check gue
 ss=(read,tcheck) scf=(maxcycle=1)
 ----------------------------------------------------------------------
 -----
 title
 -----
 Structure from the checkpoint file:  "HB300SPXx10_1103_4.14_0.90_Nmethylacetamide_tetrahydrothiophene_dimer_mol1.chk"
 Charge =  0 Multiplicity = 1

                         Standard orientation:
 ---------------------------------------------------------------------
 Center     Atomic      Atomic             Coordinates (Angstroms)
 Number     Number       Type             X           Y           Z
 ---------------------------------------------------------------------
      1          6           0       -2.262946   -1.654332   -0.148460
      2          1           0       -2.189778   -2.143024    0.821793
      3          1           0       -1.422912   -1.953767   -0.771810
      4          1           0       -3.188370   -1.990647   -0.612059
      5          6           0       -2.348420   -0.156156    0.065248
      6          8           0       -3.245972    0.348368    0.720150
      7          7           0       -1.370592    0.572128   -0.531099
      8          1           0       -0.597814    0.087047   -0.965346
      9          6           0       -1.300284    2.011332   -0.396059
     10          1           0       -2.306511    2.405217   -0.286448
     11          1           0       -0.723359    2.315866    0.481258
     12          1           0       -0.840150    2.439424   -1.284227
     13          1           0        1.409534    1.636579   -0.840597
     14          1           0        3.032486    1.068315   -1.239065
     15          1           0        2.519992    1.817093    1.293315
     16          1           0        2.062631   -2.024013    0.915290
     17          1           0        3.454127    0.351536    1.011417
     18          1           0        0.314754   -1.800394    0.790702
     19          1           0        1.639242   -0.285232    2.554981
     20          1           0        0.445717    0.489031    1.517976
     21         16           0        1.473414   -0.777108   -1.073190
     22          6           0        2.155934    0.874750   -0.627235
     23          6           0        2.477763    0.815583    0.865496
     24          6           0        1.397062   -0.043120    1.520318
     25          6           0        1.277174   -1.309915    0.677417
 ---------------------------------------------------------------------

 SCF Done:  E(RHF) =  -801.210009109     A.U. after    2 cycles

 The electronic state is 1-A.
 Alpha  occ. eigenvalues --  -93.94884 -20.49104 -15.50799 -11.34317 -11.27725
 Alpha  occ. eigenvalues --  -11.27559 -11.26229 -11.25282 -11.24987 -11.23786
 Alpha  occ. eigenvalues --   -8.23045  -6.20838  -6.20722  -6.20518  -1.44128
 Alpha  occ. eigenvalues --   -1.22909  -1.15354  -1.01857  -1.00457  -1.00063
 Alpha  occ. eigenvalues --   -0.93981  -0.81939  -0.81330  -0.80544  -0.70212
 Alpha  occ. eigenvalues --   -0.68146  -0.66701  -0.65986  -0.64138  -0.62266
 Alpha  occ. eigenvalues --   -0.59029  -0.58239  -0.56721  -0.56213  -0.55340
 Alpha  occ. eigenvalues --   -0.52887  -0.51556  -0.50389  -0.50228  -0.49868
 Alpha  occ. eigenvalues --   -0.44836  -0.41137  -0.40227  -0.36089
 Alpha virt. eigenvalues --    0.02842   0.02892   0.03535   0.03948   0.04880
 Alpha virt. eigenvalues --    0.05390   0.05554   0.06222   0.06755   0.07604
 Alpha virt. eigenvalues --    0.08374   0.08623   0.09764   0.10266   0.11152

 Mulliken charges:
               1
     1  C   -0.311498
     2  H    0.281350
     3  H    0.116941
     4  H    0.075313
     5  C    0.463229
     6  O   -1.405637
     7  N    0.903259
     8  H    0.159751
     9  C   -0.396371
    10  H   -0.059804
    11  H    0.146311
    12  H    0.169206
    13  H    0.036839
    14  H    0.153739
    15  H    0.136094
    16  H    0.092492
    17  H    0.097347
    18  H    0.053748
    19  H    0.149373
    20  H    0.072381
    21  S    0.177642
    22  C   -0.413296
    23  C   -0.321878
    24  C   -0.177191
    25  C   -0.199342
 Sum of Mulliken charges =  -0.00000

 Dipole moment (field-independent basis, Debye):
    X=              4.2988    Y=             -0.0561    Z=              0.0174  Tot=              4.2992

 Test job not archived.
 1\1\GINC-SE112\SP\RHF\Aug-CC-pVDZ\C7H15N1O1S1\OHZDE\09-Apr-2025\0\\#t
 hf aug-cc-pvdz iop(5/13=1,5/36=2,99/5=2) pseudo=read geom=check guess=
 (read,tcheck) scf=(maxcycle=1)\\title\\0,1\C,0,-2.35790997,-0.53076315
 ,1.51380969\H,0,-2.45888814,0.43106478,2.01406411\H,0,-1.4356415,-1.01
 232631,1.83224394\H,0,-3.20368729,-1.14467685,1.81747472\C,0,-2.435185
 38,-0.3119418,0.01592702\O,0,-3.41358688,0.19433185,-0.50891479\N,0,-1
 .3525984,-0.72916607,-0.68842032\H,0,-0.53292762,-1.03795931,-0.184588
 74\C,0,-1.26500492,-0.56327277,-2.12344447\H,0,-2.26409386,-0.61429593

 Normal termination of Gaussian 16 at Wed Apr  9 19:28:31 2025.
