 Gaussian 16, Revision C.01,

 ----------------------------------------------------------------------
 #t hf aug-cc-pvdz symm=none int=(grid=ultrafine) guess=(read,tcheck) s
 table=(opt,rrhf)
 ----------------------------------------------------------------------
 -----
 title
 -----
 Symbolic Z-matrix:
 Charge =  0 Multiplicity = 1

 SCF Done:  E(RHF) =  -532.965577367     A.U. after   13 cycles
 Normal termination of Gaussian 16 at Wed Apr  9 19:23:48 2025.
 Gaussian 16:  ES64L-G16RevC.01  3-Jul-2019

 ----------------------------------------------------------------------
 #t hf aug-cc-pvdz iop(5/13=1,5/36=2,99/5=2) pseudo=read geom=check gue
 ss=(read,tcheck) scf=(maxcycle=1)
 ----------------------------------------------------------------------
 -----
 title
 -----
 Structure from the checkpoint file:  "HB300SPXx10_1042_4.08_0.85_ammonia_dimethylsulfide_dimer_mol1.chk"
 Charge =  0 Multiplicity = 1

                         Standard orientation:
 ---------------------------------------------------------------------
 Center     Atomic      Atomic             Coordinates (Angstroms)
 Number     Number       Type             X           Y           Z
 ---------------------------------------------------------------------
      1          7           0        2.645104   -0.290778    0.146549
      2          1           0        3.253553   -0.356010    0.952630
      3          1           0        1.767461   -0.736887    0.389651
      4          1           0        3.065168   -0.842976   -0.590388
      5          1           0       -0.136438    1.623146    1.035137
      6          1           0       -0.614987    2.030683   -0.631700
      7          1           0        1.044133    1.488035   -0.275343
      8          1           0       -2.492933   -1.404115    0.199605
      9          1           0       -2.754827    0.287656   -0.251063
     10          1           0       -2.147074   -0.121548    1.371250
     11          6           0       -0.004878    1.372372   -0.016147
     12         16           0       -0.422181   -0.364270   -0.314239
     13          6           0       -2.119270   -0.389742    0.316515
 ---------------------------------------------------------------------

 SCF Done:  E(RHF) =  -533.181497979     A.U. after    2 cycles

 The electronic state is 1-A.
 Alpha  occ. eigenvalues --  -93.93586 -15.47278 -11.25962 -11.24863  -8.21744
 Alpha  occ. eigenvalues --   -6.19573  -6.19413  -6.19194  -1.13638  -1.08053
 Alpha  occ. eigenvalues --   -0.95372  -0.82382  -0.66485  -0.65574  -0.60773
 Alpha  occ. eigenvalues --   -0.60279  -0.57989  -0.56722  -0.50006  -0.45964
 Alpha  occ. eigenvalues --   -0.44040  -0.34341
 Alpha virt. eigenvalues --    0.03701   0.03994   0.04505   0.05010   0.06716
 Alpha virt. eigenvalues --    0.07001   0.07821   0.07948   0.09350   0.11269
 Alpha virt. eigenvalues --    0.13444   0.14949   0.15454   0.16232   0.16723

 Mulliken charges:
               1
     1  N   -0.064325
     2  H    0.113942
     3  H   -0.069818
     4  H    0.130699
     5  H    0.204976
     6  H    0.149946
     7  H    0.125015
     8  H    0.141566
     9  H    0.185267
    10  H    0.168053
    11  C   -0.646169
    12  S    0.263406
    13  C   -0.702558
 Sum of Mulliken charges =  -0.00000

 Dipole moment (field-independent basis, Debye):
    X=             -0.7620    Y=             -0.0780    Z=              1.1177  Tot=              1.3550

 Test job not archived.
 1\1\GINC-SE018\SP\RHF\Aug-CC-pVDZ\C2H9N1S1\OHZDE\09-Apr-2025\0\\#t hf
 aug-cc-pvdz iop(5/13=1,5/36=2,99/5=2) pseudo=read geom=check guess=(re
 ad,tcheck) scf=(maxcycle=1)\\title\\0,1\N,0,-1.73355141,-2.37393966,0.
 81983189\H,0,-2.47172211,-2.47256241,1.50511242\H,0,-1.77953232,-1.428
 67287,0.45551723\H,0,-1.951459,-2.99867579,0.05388488\H,0,0.48035844,0
 .07744163,1.9507608\H,0,1.8474285,-0.42758685,0.92630738\H,0,0.5098026
 2,-1.55392222,1.26727992\H,0,-0.21345427,2.20104278,-1.27792819\H,0,1.
 36706724,1.8896612,-0.54391557\H,0,-0.03774423,2.26336689,0.48348866\C

 Normal termination of Gaussian 16 at Wed Apr  9 19:23:51 2025.
