 Gaussian 16, Revision C.01,

 ----------------------------------------------------------------------
 #t hf aug-cc-pvdz symm=none int=(grid=ultrafine) guess=(read,tcheck) s
 table=(opt,rrhf)
 ----------------------------------------------------------------------
 -----
 title
 -----
 Symbolic Z-matrix:
 Charge =  0 Multiplicity = 1

 SCF Done:  E(RHF) =  -704.620716328     A.U. after   13 cycles
 Normal termination of Gaussian 16 at Wed Apr  9 19:26:19 2025.
 Gaussian 16:  ES64L-G16RevC.01  3-Jul-2019

 ----------------------------------------------------------------------
 #t hf aug-cc-pvdz iop(5/13=1,5/36=2,99/5=2) pseudo=read geom=check gue
 ss=(read,tcheck) scf=(maxcycle=1)
 ----------------------------------------------------------------------
 -----
 title
 -----
 Structure from the checkpoint file:  "HB300SPXx10_1125_4.16_1.00_aceticacid_dimethylsulfide_dimer_mol1.chk"
 Charge =  0 Multiplicity = 1

                         Standard orientation:
 ---------------------------------------------------------------------
 Center     Atomic      Atomic             Coordinates (Angstroms)
 Number     Number       Type             X           Y           Z
 ---------------------------------------------------------------------
      1          6           0        0.267541    1.843012    0.000000
      2          8           0       -0.867853    1.426098    0.000000
      3          8           0        1.344375    1.049229    0.000000
      4          1           0        1.055271    0.102850    0.000000
      5          6           0        0.641847    3.299630    0.000000
      6          1           0       -0.254079    3.910346    0.000000
      7          1           0        1.247848    3.524007    0.876781
      8          1           0        1.247848    3.524007   -0.876781
      9          1           0       -1.656450   -2.441957    1.379195
     10          1           0       -1.291059   -0.693614    1.315483
     11          1           0       -0.291333   -1.787898    2.299403
     12          1           0       -0.291333   -1.787898   -2.299403
     13          1           0       -1.291059   -0.693614   -1.315483
     14          1           0       -1.656450   -2.441957   -1.379195
     15          6           0       -0.867853   -1.692717    1.382643
     16         16           0        0.270408   -1.972508   -0.000000
     17          6           0       -0.867853   -1.692717   -1.382643
 ---------------------------------------------------------------------

 SCF Done:  E(RHF) =  -705.002054786     A.U. after    2 cycles

 The electronic state is 1-A'.
 Alpha  occ. eigenvalues --  -93.94942 -20.58057 -20.52880 -11.38898 -11.26075
 Alpha  occ. eigenvalues --  -11.26048 -11.24824  -8.23069  -6.20895  -6.20742
 Alpha  occ. eigenvalues --   -6.20549  -1.53512  -1.44116  -1.09173  -1.02491
 Alpha  occ. eigenvalues --   -0.96021  -0.83448  -0.81490  -0.70276  -0.67790
 Alpha  occ. eigenvalues --   -0.64403  -0.61839  -0.61278  -0.58764  -0.57603
 Alpha  occ. eigenvalues --   -0.57455  -0.56145  -0.55250  -0.50806  -0.46457
 Alpha  occ. eigenvalues --   -0.45109  -0.43714  -0.35857
 Alpha virt. eigenvalues --    0.03742   0.03910   0.04028   0.04874   0.05954
 Alpha virt. eigenvalues --    0.06097   0.07062   0.07427   0.08030   0.08904
 Alpha virt. eigenvalues --    0.10864   0.11353   0.13235   0.14439   0.14837

 Mulliken charges:
               1
     1  C    1.856913
     2  O   -1.218955
     3  O   -1.406190
     4  H    0.776212
     5  C   -0.536725
     6  H    0.180661
     7  H    0.230352
     8  H    0.230352
     9  H    0.152385
    10  H    0.154782
    11  H    0.154901
    12  H    0.154901
    13  H    0.154782
    14  H    0.152385
    15  C   -0.550728
    16  S    0.064702
    17  C   -0.550728
 Sum of Mulliken charges =  -0.00000

 Dipole moment (field-independent basis, Debye):
    X=             -0.3026    Y=              0.4141    Z=             -0.0000  Tot=              0.5128

 Test job not archived.
 1\1\GINC-SE037\SP\RHF\Aug-CC-pVDZ\C4H10O2S1\OHZDE\09-Apr-2025\0\\#t hf
  aug-cc-pvdz iop(5/13=1,5/36=2,99/5=2) pseudo=read geom=check guess=(r
 ead,tcheck) scf=(maxcycle=1)\\title\\0,1\C,0,0.08152563,1.86646531,0.\
 O,0,1.12794826,1.25988757,0.\O,0,-1.11612638,1.27040068,0.\H,0,-0.9946
 6015,0.28833063,0.\C,0,-0.03582077,3.36582142,0.\H,0,0.95204799,3.8127
 8193,0.\H,0,-0.5940149,3.69140047,-0.87678098\H,0,-0.5940149,3.6914004
 7,0.87678098\H,0,1.23726894,-2.68622206,-1.37919498\H,0,1.17904238,-0.
 90105407,-1.31548339\H,0,0.00548843,-1.80641742,-2.29940307\H,0,0.0054

 Normal termination of Gaussian 16 at Wed Apr  9 19:26:23 2025.
