 Gaussian 16, Revision C.01,

 ----------------------------------------------------------------------
 #t hf aug-cc-pvdz symm=none int=(grid=ultrafine) guess=(read,tcheck) s
 table=(opt,rrhf)
 ----------------------------------------------------------------------
 -----
 title
 -----
 Symbolic Z-matrix:
 Charge =  0 Multiplicity = 1

 SCF Done:  E(RHF) =  -704.621686228     A.U. after   13 cycles
 Normal termination of Gaussian 16 at Wed Apr  9 19:26:18 2025.
 Gaussian 16:  ES64L-G16RevC.01  3-Jul-2019

 ----------------------------------------------------------------------
 #t hf aug-cc-pvdz iop(5/13=1,5/36=2,99/5=2) pseudo=read geom=check gue
 ss=(read,tcheck) scf=(maxcycle=1)
 ----------------------------------------------------------------------
 -----
 title
 -----
 Structure from the checkpoint file:  "HB300SPXx10_1126_4.16_1.05_aceticacid_dimethylsulfide_dimer_mol1.chk"
 Charge =  0 Multiplicity = 1

                         Standard orientation:
 ---------------------------------------------------------------------
 Center     Atomic      Atomic             Coordinates (Angstroms)
 Number     Number       Type             X           Y           Z
 ---------------------------------------------------------------------
      1          6           0        0.264643    1.899832    0.000000
      2          8           0       -0.865590    1.469123    0.000000
      3          8           0        1.351063    1.119220    0.000000
      4          1           0        1.073504    0.169390    0.000000
      5          6           0        0.621185    3.360899    0.000000
      6          1           0       -0.282112    3.960661    0.000000
      7          1           0        1.224409    3.592638    0.876781
      8          1           0        1.224409    3.592638   -0.876781
      9          1           0       -1.645005   -2.512486    1.379195
     10          1           0       -1.300931   -0.759823    1.315483
     11          1           0       -0.287953   -1.841852    2.299403
     12          1           0       -0.287953   -1.841852   -2.299403
     13          1           0       -1.300931   -0.759823   -1.315483
     14          1           0       -1.645005   -2.512486   -1.379195
     15          6           0       -0.865590   -1.753699    1.382643
     16         16           0        0.275993   -2.019609   -0.000000
     17          6           0       -0.865590   -1.753699   -1.382643
 ---------------------------------------------------------------------

 SCF Done:  E(RHF) =  -705.002742450     A.U. after    2 cycles

 The electronic state is 1-A'.
 Alpha  occ. eigenvalues --  -93.94864 -20.58419 -20.52977 -11.38999 -11.26079
 Alpha  occ. eigenvalues --  -11.26052 -11.24910  -8.22968  -6.20798  -6.20645
 Alpha  occ. eigenvalues --   -6.20445  -1.53676  -1.44219  -1.09052  -1.02583
 Alpha  occ. eigenvalues --   -0.95994  -0.83267  -0.81682  -0.70308  -0.67868
 Alpha  occ. eigenvalues --   -0.64510  -0.61758  -0.61269  -0.58731  -0.57690
 Alpha  occ. eigenvalues --   -0.57419  -0.56306  -0.55401  -0.50758  -0.46588
 Alpha  occ. eigenvalues --   -0.45014  -0.43813  -0.35698
 Alpha virt. eigenvalues --    0.03729   0.03919   0.04036   0.04876   0.05927
 Alpha virt. eigenvalues --    0.06081   0.07052   0.07438   0.08018   0.08887
 Alpha virt. eigenvalues --    0.10806   0.11336   0.13270   0.14411   0.14872

 Mulliken charges:
               1
     1  C    1.867600
     2  O   -1.215342
     3  O   -1.376551
     4  H    0.711391
     5  C   -0.545634
     6  H    0.180563
     7  H    0.230264
     8  H    0.230264
     9  H    0.155822
    10  H    0.152308
    11  H    0.154577
    12  H    0.154577
    13  H    0.152308
    14  H    0.155822
    15  C   -0.563253
    16  S    0.118537
    17  C   -0.563253
 Sum of Mulliken charges =  -0.00000

 Dipole moment (field-independent basis, Debye):
    X=             -0.2825    Y=              0.4738    Z=             -0.0000  Tot=              0.5516

 Test job not archived.
 1\1\GINC-SE105\SP\RHF\Aug-CC-pVDZ\C4H10O2S1\OHZDE\09-Apr-2025\0\\#t hf
  aug-cc-pvdz iop(5/13=1,5/36=2,99/5=2) pseudo=read geom=check guess=(r
 ead,tcheck) scf=(maxcycle=1)\\title\\0,1\C,0,0.08152563,1.86646531,0.\
 O,0,1.12794826,1.25988757,0.\O,0,-1.11612638,1.27040068,0.\H,0,-0.9946
 6015,0.28833063,0.\C,0,-0.03582077,3.36582142,0.\H,0,0.95204799,3.8127
 8193,0.\H,0,-0.5940149,3.69140047,-0.87678098\H,0,-0.5940149,3.6914004
 7,0.87678098\H,0,1.25801788,-2.795205,-1.37919498\H,0,1.19979132,-1.01
 0037,-1.31548339\H,0,0.02623738,-1.91540035,-2.29940307\H,0,0.02623738

 Normal termination of Gaussian 16 at Wed Apr  9 19:26:23 2025.
