 Gaussian 16, Revision C.01,

 ----------------------------------------------------------------------
 #t hf aug-cc-pvdz symm=none int=(grid=ultrafine) guess=(read,tcheck) s
 table=(opt,rrhf)
 ----------------------------------------------------------------------
 -----
 title
 -----
 Symbolic Z-matrix:
 Charge =  0 Multiplicity = 1

 SCF Done:  E(RHF) =  -855.911079411     A.U. after   14 cycles
 Normal termination of Gaussian 16 at Wed Apr  9 19:22:47 2025.
 Gaussian 16:  ES64L-G16RevC.01  3-Jul-2019

 ----------------------------------------------------------------------
 #t hf aug-cc-pvdz iop(5/13=1,5/36=2,99/5=2) pseudo=read geom=check gue
 ss=(read,tcheck) scf=(maxcycle=1)
 ----------------------------------------------------------------------
 -----
 title
 -----
 Structure from the checkpoint file:  "HB300SPXx10_1037_4.07_1.10_phosphaalkyne_methanethiol_dimer_mol1.chk"
 Charge =  0 Multiplicity = 1

                         Standard orientation:
 ---------------------------------------------------------------------
 Center     Atomic      Atomic             Coordinates (Angstroms)
 Number     Number       Type             X           Y           Z
 ---------------------------------------------------------------------
      1          1           0       -1.738614    2.120579    1.244680
      2          1           0       -1.984175    2.418200   -0.478540
      3          1           0       -0.379919    1.975651    0.116990
      4         15           0       -2.059351   -1.103835   -0.170346
      5          6           0       -1.754094    0.390881    0.042861
      6          6           0       -1.450470    1.796859    0.242870
      7          1           0        1.037163   -0.227473    1.500754
      8          1           0        2.800837   -0.235698    1.672828
      9          1           0        1.977195   -1.651634    1.004095
     10          1           0        1.097030   -0.310664   -1.146137
     11          6           0        1.968352   -0.567056    1.057782
     12         16           0        2.218626    0.171528   -0.588784
 ---------------------------------------------------------------------

 SCF Done:  E(RHF) =  -856.137816930     A.U. after    2 cycles

 The electronic state is 1-A.
 Alpha  occ. eigenvalues --  -93.94626 -84.26327 -11.29169 -11.26610 -11.26539
 Alpha  occ. eigenvalues --   -8.22717  -6.73981  -6.20578  -6.20433  -6.20202
 Alpha  occ. eigenvalues --   -4.26919  -4.25274  -4.25179  -1.06107  -1.05648
 Alpha  occ. eigenvalues --   -0.91920  -0.88328  -0.67125  -0.61763  -0.60647
 Alpha  occ. eigenvalues --   -0.60584  -0.59394  -0.53381  -0.46685  -0.46448
 Alpha  occ. eigenvalues --   -0.36352  -0.35634  -0.35619
 Alpha virt. eigenvalues --    0.03333   0.03887   0.04701   0.05110   0.06202
 Alpha virt. eigenvalues --    0.06780   0.07256   0.07632   0.07885   0.08837
 Alpha virt. eigenvalues --    0.11224   0.12362   0.12629   0.14274   0.14497

 Mulliken charges:
               1
     1  H    0.253374
     2  H    0.204819
     3  H    0.186799
     4  P    0.818932
     5  C   -0.836478
     6  C   -0.626046
     7  H    0.142644
     8  H    0.155899
     9  H    0.146245
    10  H    0.360062
    11  C   -0.666076
    12  S   -0.140175
 Sum of Mulliken charges =   0.00000

 Dipole moment (field-independent basis, Debye):
    X=             -0.9677    Y=             -0.5029    Z=              1.1450  Tot=              1.5813

 Test job not archived.
 1\1\GINC-SE117\SP\RHF\Aug-CC-pVDZ\C3H7P1S1\OHZDE\09-Apr-2025\0\\#t hf
 aug-cc-pvdz iop(5/13=1,5/36=2,99/5=2) pseudo=read geom=check guess=(re
 ad,tcheck) scf=(maxcycle=1)\\title\\0,1\H,0,0.38933231,2.34404549,-1.6
 8180664\H,0,-1.19987448,1.75919838,-2.18254684\H,0,0.10218747,0.605834
 91,-1.86864837\P,0,-1.17058474,1.34195856,1.32892267\C,0,-0.7484701,1.
 45533882,-0.14816129\C,0,-0.34350289,1.5476729,-1.53972175\H,0,1.88797
 675,-0.31674106,0.30769959\H,0,2.93140287,-1.73614709,0.11593386\H,0,1
 .85881996,-1.61777544,1.51808178\H,0,-0.36132304,-1.68451468,0.0137874

 Normal termination of Gaussian 16 at Wed Apr  9 19:22:52 2025.
