 Gaussian 16, Revision C.01,

 ----------------------------------------------------------------------
 #t hf aug-cc-pvdz symm=none int=(grid=ultrafine) guess=(read,tcheck) s
 table=(opt,rrhf)
 ----------------------------------------------------------------------
 -----
 title
 -----
 Symbolic Z-matrix:
 Charge =  0 Multiplicity = 1

 SCF Done:  E(RHF) =  -601.594504543     A.U. after   14 cycles
 Normal termination of Gaussian 16 at Wed Apr  9 19:22:41 2025.
 Gaussian 16:  ES64L-G16RevC.01  3-Jul-2019

 ----------------------------------------------------------------------
 #t hf aug-cc-pvdz iop(5/13=1,5/36=2,99/5=2) pseudo=read geom=check gue
 ss=(read,tcheck) scf=(maxcycle=1)
 ----------------------------------------------------------------------
 -----
 title
 -----
 Structure from the checkpoint file:  "HB300SPXx10_103_1.11_0.90_sulfane_methylazide_dimer_mol1.chk"
 Charge =  0 Multiplicity = 1

                         Standard orientation:
 ---------------------------------------------------------------------
 Center     Atomic      Atomic             Coordinates (Angstroms)
 Number     Number       Type             X           Y           Z
 ---------------------------------------------------------------------
      1          1           0       -1.201565   -0.523134   -0.011891
      2          1           0       -2.689481   -0.447670    1.238805
      3         16           0       -2.527504   -0.305297   -0.084691
      4          1           0        1.149188    1.950500   -0.908435
      5          1           0        1.194357    1.986577    0.871348
      6          1           0       -0.354379    1.826099    0.022521
      7          6           0        0.695692    1.556166    0.001871
      8          7           0        0.747984    0.084960    0.030680
      9          7           0        1.865249   -0.418067    0.004133
     10          7           0        2.839309   -0.987552   -0.016030
 ---------------------------------------------------------------------

 SCF Done:  E(RHF) =  -601.861790868     A.U. after    2 cycles

 The electronic state is 1-A.
 Alpha  occ. eigenvalues --  -93.94442 -15.73173 -15.61737 -15.55784 -11.29242
 Alpha  occ. eigenvalues --   -8.22593  -6.20472  -6.20355  -6.20120  -1.52696
 Alpha  occ. eigenvalues --   -1.34191  -1.03091  -1.00343  -0.78868  -0.77421
 Alpha  occ. eigenvalues --   -0.76669  -0.72750  -0.61817  -0.60504  -0.58103
 Alpha  occ. eigenvalues --   -0.51384  -0.47717  -0.44058  -0.37800
 Alpha virt. eigenvalues --    0.03095   0.04936   0.05280   0.05659   0.06654
 Alpha virt. eigenvalues --    0.07804   0.09198   0.09755   0.10634   0.11228
 Alpha virt. eigenvalues --    0.13061   0.13817   0.15565   0.16191   0.17328

 Mulliken charges:
               1
     1  H    0.420087
     2  H    0.248820
     3  S   -0.597036
     4  H    0.159399
     5  H    0.156846
     6  H    0.058705
     7  C   -0.209469
     8  N    0.438365
     9  N   -1.633669
    10  N    0.957953
 Sum of Mulliken charges =  -0.00000

 Dipole moment (field-independent basis, Debye):
    X=              1.1569    Y=              2.0416    Z=              0.8336  Tot=              2.4903

 Test job not archived.
 1\1\GINC-SE362\SP\RHF\Aug-CC-pVDZ\C1H5N3S1\OHZDE\09-Apr-2025\0\\#t hf
 aug-cc-pvdz iop(5/13=1,5/36=2,99/5=2) pseudo=read geom=check guess=(re
 ad,tcheck) scf=(maxcycle=1)\\title\\0,1\H,0,1.21774303,0.78814331,-0.0
 7896573\H,0,1.90622629,2.11329938,-1.32547278\S,0,1.84165876,1.9773473
 1,0.00700442\H,0,-2.05227403,0.30161732,1.15350358\H,0,-2.30311554,0.4
 0773082,-0.60626506\H,0,-1.16030968,1.49938022,0.19818529\C,0,-1.56828
 399,0.49464742,0.19521955\N,0,-0.43151645,-0.41561466,-0.02202449\N,0,
 -0.6933043,-1.61260779,-0.0484024\N,0,-0.81764487,-2.73342077,-0.09119

 Normal termination of Gaussian 16 at Wed Apr  9 19:22:44 2025.
