 Gaussian 16, Revision C.01,

 ----------------------------------------------------------------------
 #t hf aug-cc-pvdz symm=none int=(grid=ultrafine) guess=(read,tcheck) s
 table=(opt,rrhf)
 ----------------------------------------------------------------------
 -----
 title
 -----
 Symbolic Z-matrix:
 Charge =  0 Multiplicity = 1

 SCF Done:  E(RHF) =  -800.727652531     A.U. after   13 cycles
 Normal termination of Gaussian 16 at Wed Apr  9 19:27:17 2025.
 Gaussian 16:  ES64L-G16RevC.01  3-Jul-2019

 ----------------------------------------------------------------------
 #t hf aug-cc-pvdz iop(5/13=1,5/36=2,99/5=2) pseudo=read geom=check gue
 ss=(read,tcheck) scf=(maxcycle=1)
 ----------------------------------------------------------------------
 -----
 title
 -----
 Structure from the checkpoint file:  "HB300SPXx10_1107_4.14_1.10_Nmethylacetamide_tetrahydrothiophene_dimer_mol1.chk"
 Charge =  0 Multiplicity = 1

                         Standard orientation:
 ---------------------------------------------------------------------
 Center     Atomic      Atomic             Coordinates (Angstroms)
 Number     Number       Type             X           Y           Z
 ---------------------------------------------------------------------
      1          6           0       -2.399430   -1.720261   -0.152302
      2          1           0       -2.293905   -2.209958    0.814459
      3          1           0       -1.539517   -1.955606   -0.776036
      4          1           0       -3.298348   -2.116861   -0.620380
      5          6           0       -2.589667   -0.233364    0.072317
      6          8           0       -3.521332    0.202309    0.728998
      7          7           0       -1.664107    0.565891   -0.516501
      8          1           0       -0.858631    0.139236   -0.952659
      9          6           0       -1.694695    2.005432   -0.370648
     10          1           0       -2.726150    2.327264   -0.260297
     11          1           0       -1.141884    2.342875    0.510146
     12          1           0       -1.264124    2.471292   -1.254623
     13          1           0        1.508001    1.664907   -0.836485
     14          1           0        3.167325    1.214363   -1.235643
     15          1           0        2.599642    1.906408    1.301103
     16          1           0        2.412251   -1.954295    0.893636
     17          1           0        3.634301    0.511816    1.010372
     18          1           0        0.653233   -1.852322    0.766929
     19          1           0        1.865786   -0.261736    2.545247
     20          1           0        0.622807    0.435109    1.511431
     21         16           0        1.740659   -0.736607   -1.086819
     22          6           0        2.305428    0.955461   -0.627160
     23          6           0        2.628156    0.907649    0.865783
     24          6           0        1.608986   -0.029325    1.511886
     25          6           0        1.579235   -1.295005    0.659363
 ---------------------------------------------------------------------

 SCF Done:  E(RHF) =  -801.217830277     A.U. after    2 cycles

 The electronic state is 1-A.
 Alpha  occ. eigenvalues --  -93.94627 -20.49380 -15.51687 -11.34645 -11.27510
 Alpha  occ. eigenvalues --  -11.27395 -11.26422 -11.25162 -11.25011 -11.23929
 Alpha  occ. eigenvalues --   -8.22735  -6.20539  -6.20421  -6.20199  -1.44394
 Alpha  occ. eigenvalues --   -1.23294  -1.15118  -1.01935  -1.00286  -0.99682
 Alpha  occ. eigenvalues --   -0.94137  -0.81520  -0.81118  -0.80894  -0.70254
 Alpha  occ. eigenvalues --   -0.67867  -0.66597  -0.66219  -0.64428  -0.62065
 Alpha  occ. eigenvalues --   -0.58986  -0.58231  -0.56852  -0.56312  -0.55438
 Alpha  occ. eigenvalues --   -0.52750  -0.51438  -0.50575  -0.49979  -0.49904
 Alpha  occ. eigenvalues --   -0.44473  -0.41363  -0.40610  -0.35676
 Alpha virt. eigenvalues --    0.02890   0.02907   0.03592   0.03866   0.04918
 Alpha virt. eigenvalues --    0.05398   0.05517   0.06251   0.06630   0.07354
 Alpha virt. eigenvalues --    0.08067   0.08479   0.09530   0.09887   0.11152

 Mulliken charges:
               1
     1  C   -0.323375
     2  H    0.244532
     3  H    0.092683
     4  H    0.149121
     5  C    0.441253
     6  O   -1.381932
     7  N    0.866329
     8  H    0.068588
     9  C   -0.392671
    10  H    0.015540
    11  H    0.146745
    12  H    0.107593
    13  H    0.076029
    14  H    0.164201
    15  H    0.142270
    16  H    0.118934
    17  H    0.098276
    18  H    0.076375
    19  H    0.153081
    20  H    0.055741
    21  S    0.367591
    22  C   -0.500994
    23  C   -0.292689
    24  C   -0.210004
    25  C   -0.283217
 Sum of Mulliken charges =  -0.00000

 Dipole moment (field-independent basis, Debye):
    X=              4.1334    Y=              0.2761    Z=              0.0512  Tot=              4.1429

 Test job not archived.
 1\1\GINC-SE362\SP\RHF\Aug-CC-pVDZ\C7H15N1O1S1\OHZDE\09-Apr-2025\0\\#t
 hf aug-cc-pvdz iop(5/13=1,5/36=2,99/5=2) pseudo=read geom=check guess=
 (read,tcheck) scf=(maxcycle=1)\\title\\0,1\C,0,-2.35790997,-0.53076315
 ,1.51380969\H,0,-2.45888814,0.43106478,2.01406411\H,0,-1.4356415,-1.01
 232631,1.83224394\H,0,-3.20368729,-1.14467685,1.81747472\C,0,-2.435185
 38,-0.3119418,0.01592702\O,0,-3.41358688,0.19433185,-0.50891479\N,0,-1
 .3525984,-0.72916607,-0.68842032\H,0,-0.53292762,-1.03795931,-0.184588
 74\C,0,-1.26500492,-0.56327277,-2.12344447\H,0,-2.26409386,-0.61429593

 Normal termination of Gaussian 16 at Wed Apr  9 19:27:32 2025.
