 Gaussian 16, Revision C.01,

 ----------------------------------------------------------------------
 #t hf aug-cc-pvdz symm=none int=(grid=ultrafine) guess=(read,tcheck) s
 table=(opt,rrhf)
 ----------------------------------------------------------------------
 -----
 title
 -----
 Symbolic Z-matrix:
 Charge =  0 Multiplicity = 1

 SCF Done:  E(RHF) =  -742.483582900     A.U. after   14 cycles
 Normal termination of Gaussian 16 at Wed Apr  9 19:27:33 2025.
 Gaussian 16:  ES64L-G16RevC.01  3-Jul-2019

 ----------------------------------------------------------------------
 #t hf aug-cc-pvdz iop(5/13=1,5/36=2,99/5=2) pseudo=read geom=check gue
 ss=(read,tcheck) scf=(maxcycle=1)
 ----------------------------------------------------------------------
 -----
 title
 -----
 Structure from the checkpoint file:  "HB300SPXx10_1134_4.17_0.95_aceticacid_thioacetone_dimer_mol1.chk"
 Charge =  0 Multiplicity = 1

                         Standard orientation:
 ---------------------------------------------------------------------
 Center     Atomic      Atomic             Coordinates (Angstroms)
 Number     Number       Type             X           Y           Z
 ---------------------------------------------------------------------
      1          6           0       -1.897429    1.488966    0.000000
      2          8           0       -2.149335    0.307296    0.000000
      3          8           0       -0.651955    1.979441    0.000000
      4          1           0       -0.000000    1.242087    0.000000
      5          6           0       -2.929460    2.583252    0.000000
      6          1           0       -3.923961    2.151247    0.000000
      7          1           0       -2.795906    3.215265    0.876954
      8          1           0       -2.795906    3.215265   -0.876954
      9          1           0        3.523944   -2.167954    0.000000
     10          1           0        2.417627   -3.251079    0.874412
     11          1           0        2.417627   -3.251079   -0.874412
     12          1           0       -0.691140   -1.301527    0.000000
     13          1           0       -0.088251   -2.729351   -0.872921
     14          6           0        2.531556   -2.605567    0.000000
     15          6           0        1.455740   -1.563610    0.000000
     16         16           0        1.820714    0.025926    0.000000
     17          6           0        0.056778   -2.086748    0.000000
     18          1           0       -0.088251   -2.729351    0.872921
 ---------------------------------------------------------------------

 SCF Done:  E(RHF) =  -742.899521062     A.U. after    2 cycles

 The electronic state is 1-A'.
 Alpha  occ. eigenvalues --  -93.93282 -20.57298 -20.52405 -11.38392 -11.34136
 Alpha  occ. eigenvalues --  -11.25801 -11.24379 -11.24372  -8.21665  -6.19481
 Alpha  occ. eigenvalues --   -6.19276  -6.19091  -1.52957  -1.43696  -1.14096
 Alpha  occ. eigenvalues --   -1.02085  -0.98393  -0.97310  -0.81519  -0.73733
 Alpha  occ. eigenvalues --   -0.70187  -0.67183  -0.63827  -0.62774  -0.62577
 Alpha  occ. eigenvalues --   -0.62089  -0.57217  -0.56600  -0.56199  -0.54819
 Alpha  occ. eigenvalues --   -0.54015  -0.51132  -0.45980  -0.43281  -0.40263
 Alpha  occ. eigenvalues --   -0.35920
 Alpha virt. eigenvalues --    0.03225   0.03574   0.04099   0.04718   0.05945
 Alpha virt. eigenvalues --    0.05955   0.06159   0.06228   0.07767   0.07874
 Alpha virt. eigenvalues --    0.08867   0.09659   0.12379   0.12763   0.13256

 Mulliken charges:
               1
     1  C    1.908798
     2  O   -1.286966
     3  O   -1.449594
     4  H    0.775778
     5  C   -0.539627
     6  H    0.169118
     7  H    0.230620
     8  H    0.230620
     9  H    0.169502
    10  H    0.254316
    11  H    0.254316
    12  H   -0.155367
    13  H    0.332643
    14  C   -0.481105
    15  C   -0.613993
    16  S    0.153776
    17  C   -0.285478
    18  H    0.332643
 Sum of Mulliken charges =  -0.00000

 Dipole moment (field-independent basis, Debye):
    X=              0.2990    Y=             -2.1023    Z=              0.0000  Tot=              2.1235

 Test job not archived.
 1\1\GINC-SE117\SP\RHF\Aug-CC-pVDZ\C5H10O2S1\OHZDE\09-Apr-2025\0\\#t hf
  aug-cc-pvdz iop(5/13=1,5/36=2,99/5=2) pseudo=read geom=check guess=(r
 ead,tcheck) scf=(maxcycle=1)\\title\\0,1\C,0,0.15920132,2.45664609,0.\
 O,0,1.21885316,1.87618237,0.\O,0,-1.02533188,1.83322707,0.\H,0,-0.8922
 641,0.85801947,0.\C,0,0.00380934,3.95277518,0.\H,0,0.98023034,4.424223
 4,0.\H,0,-0.56217465,4.2641268,-0.87695442\H,0,-0.56217465,4.2641268,0
 .87695442\H,0,-0.60900319,-4.03752137,0.\H,0,0.93368693,-3.90636454,-0
 .87441231\H,0,0.93368693,-3.90636454,0.87441231\H,0,1.48588819,-0.2786

 Normal termination of Gaussian 16 at Wed Apr  9 19:27:39 2025.
