 Gaussian 16, Revision C.01,

 ----------------------------------------------------------------------
 #t hf aug-cc-pvdz symm=none int=(grid=ultrafine) guess=(read,tcheck) s
 table=(opt,rrhf)
 ----------------------------------------------------------------------
 -----
 title
 -----
 Symbolic Z-matrix:
 Charge =  0 Multiplicity = 1

 SCF Done:  E(RHF) =  -897.816490954     A.U. after   12 cycles
 Normal termination of Gaussian 16 at Wed Apr  9 19:29:43 2025.
 Gaussian 16:  ES64L-G16RevC.01  3-Jul-2019

 ----------------------------------------------------------------------
 #t hf aug-cc-pvdz iop(5/13=1,5/36=2,99/5=2) pseudo=read geom=check gue
 ss=(read,tcheck) scf=(maxcycle=1)
 ----------------------------------------------------------------------
 -----
 title
 -----
 Structure from the checkpoint file:  "HB300SPXx10_1332_4.38_0.85_hydrogenchloride_methanethiol_dimer_mol1.chk"
 Charge =  0 Multiplicity = 1

                         Standard orientation:
 ---------------------------------------------------------------------
 Center     Atomic      Atomic             Coordinates (Angstroms)
 Number     Number       Type             X           Y           Z
 ---------------------------------------------------------------------
      1          1           0       -0.705458   -0.406709   -0.090535
      2         17           0       -1.924065    0.063237    0.004296
      3          1           0        0.610953    1.589218    0.556162
      4          1           0        1.435340    1.485924   -1.005029
      5          1           0        2.382269    1.362257    0.484998
      6          1           0        1.214819   -0.935659    1.232135
      7          6           0        1.431547    1.123536    0.019135
      8         16           0        1.198869   -0.681955   -0.085349
 ---------------------------------------------------------------------

 SCF Done:  E(RHF) =  -898.004385063     A.U. after    2 cycles

 The electronic state is 1-A.
 Alpha  occ. eigenvalues -- -105.53954 -93.97956 -11.28809 -10.58879  -8.26169
 Alpha  occ. eigenvalues --   -7.75836  -7.75503  -7.75500  -6.23995  -6.23850
 Alpha  occ. eigenvalues --   -6.23680  -1.09709  -1.03548  -0.91258  -0.64654
 Alpha  occ. eigenvalues --   -0.63643  -0.59538  -0.56131  -0.49527  -0.45327
 Alpha  occ. eigenvalues --   -0.45299  -0.39089
 Alpha virt. eigenvalues --    0.03053   0.04088   0.05098   0.05819   0.08039
 Alpha virt. eigenvalues --    0.09879   0.10999   0.12571   0.13790   0.14473
 Alpha virt. eigenvalues --    0.15766   0.16564   0.17326   0.18220   0.19885

 Mulliken charges:
               1
     1  H    0.479578
     2  Cl  -0.257911
     3  H    0.118330
     4  H    0.194325
     5  H    0.127216
     6  H    0.397819
     7  C   -0.550296
     8  S   -0.509059
 Sum of Mulliken charges =  -0.00000

 Dipole moment (field-independent basis, Debye):
    X=              3.0312    Y=              0.8264    Z=              0.8271  Tot=              3.2489

 Test job not archived.
 1\1\GINC-SE226\SP\RHF\Aug-CC-pVDZ\C1H5Cl1S1\OHZDE\09-Apr-2025\0\\#t hf
  aug-cc-pvdz iop(5/13=1,5/36=2,99/5=2) pseudo=read geom=check guess=(r
 ead,tcheck) scf=(maxcycle=1)\\title\\0,1\H,0,-0.71323053,0.36081391,-0
 .38963987\Cl,0,-0.97574618,1.50432633,-0.9712843\H,0,1.59008032,0.7736
 0661,0.42229867\H,0,2.1151857,-0.63222362,-0.51338675\H,0,2.34743525,-
 0.62287484,1.24107111\H,0,-0.28620345,-0.60385354,1.75600075\C,0,1.694
 32852,-0.30696273,0.43389184\S,0,0.06562445,-1.11599059,0.56675089\\Ve
 rsion=ES64L-G16RevC.01\State=1-A\HF=-898.0043851\RMSD=5.263e-03\Dipole

 Normal termination of Gaussian 16 at Wed Apr  9 19:29:45 2025.
