 Gaussian 16, Revision C.01,

 ----------------------------------------------------------------------
 #t hf aug-cc-pvdz symm=none int=(grid=ultrafine) guess=(read,tcheck) s
 table=(opt,rrhf)
 ----------------------------------------------------------------------
 -----
 title
 -----
 Symbolic Z-matrix:
 Charge =  0 Multiplicity = 1

 SCF Done:  E(RHF) =  -858.792381685     A.U. after   10 cycles

 1\1\GINC-SE054\Stability\RHF\Aug-CC-pVDZ\Cl1H3S1\OHZDE\09-Apr-2025\0\\
 #t hf aug-cc-pvdz symm=none int=(grid=ultrafine) guess=(read,tcheck) s
 table=(opt,rrhf)\\title\\0,1\H,0,-0.07574771,0.51696812,0.\Cl,0,0.0020
 5903,1.81286821,0.\H,0,0.88100444,-3.12803411,0.97032462\H,0,0.8810044
 4,-3.12803411,-0.97032462\S,0,-0.04424267,-3.07451868,0.\\Version=ES64
 L-G16RevC.01\HF=-858.7923817\RMSD=6.733e-09\Dipole=0.4184107,-0.633920
 2,0.\Quadrupole=0.3707287,-1.6747657,1.304037,-2.7504641,0.,0.\PG=Unkn
 own\\@

 Normal termination of Gaussian 16 at Wed Apr  9 19:30:43 2025.
 Gaussian 16:  ES64L-G16RevC.01  3-Jul-2019

 ----------------------------------------------------------------------
 #t hf aug-cc-pvdz iop(5/13=1,5/36=2,99/5=2) pseudo=read geom=check gue
 ss=(read,tcheck) scf=(maxcycle=1)
 ----------------------------------------------------------------------
 -----
 title
 -----
 Structure from the checkpoint file:  "HB300SPXx10_1359_4.40_1.50_hydrogenchloride_sulfane_dimer_mol1.chk"
 Charge =  0 Multiplicity = 1

                         Standard orientation:
 ---------------------------------------------------------------------
 Center     Atomic      Atomic             Coordinates (Angstroms)
 Number     Number       Type             X           Y           Z
 ---------------------------------------------------------------------
      1          1           0       -0.115135    1.185726   -0.000000
      2         17           0       -0.049608    2.482305   -0.000000
      3          1           0        0.876104   -2.450049    0.970325
      4          1           0        0.876104   -2.450049   -0.970325
      5         16           0       -0.049608   -2.405301    0.000000
 ---------------------------------------------------------------------

 SCF Done:  E(RHF) =  -858.932740265     A.U. after    2 cycles

 The electronic state is 1-A'.
 Alpha  occ. eigenvalues -- -105.57916 -93.97594 -10.62635  -8.25675  -7.79616
 Alpha  occ. eigenvalues --   -7.79219  -7.79219  -6.23547  -6.23432  -6.23181
 Alpha  occ. eigenvalues --   -1.06568  -1.03068  -0.62311  -0.60846  -0.52051
 Alpha  occ. eigenvalues --   -0.48059  -0.48057  -0.40439
 Alpha virt. eigenvalues --    0.03021   0.05544   0.05876   0.10039   0.10840
 Alpha virt. eigenvalues --    0.12682   0.14916   0.14931   0.15195   0.15889
 Alpha virt. eigenvalues --    0.18644   0.19772   0.25205   0.26315   0.28150

 Mulliken charges:
               1
     1  H    0.178841
     2  Cl  -0.179424
     3  H    0.285858
     4  H    0.285858
     5  S   -0.571134
 Sum of Mulliken charges =  -0.00000

 Dipole moment (field-independent basis, Debye):
    X=              1.1267    Y=             -1.6317    Z=              0.0000  Tot=              1.9828

 Test job not archived.
 1\1\GINC-SE054\SP\RHF\Aug-CC-pVDZ\Cl1H3S1\OHZDE\09-Apr-2025\0\\#t hf a
 ug-cc-pvdz iop(5/13=1,5/36=2,99/5=2) pseudo=read geom=check guess=(rea
 d,tcheck) scf=(maxcycle=1)\\title\\0,1\H,0,-0.07574771,0.51696812,0.\C
 l,0,0.00205903,1.81286821,0.\H,0,0.88100444,-3.12803411,0.97032462\H,0
 ,0.88100444,-3.12803411,-0.97032462\S,0,-0.04424267,-3.07451868,0.\\Ve
 rsion=ES64L-G16RevC.01\State=1-A'\HF=-858.9327403\RMSD=4.193e-03\Dipol
 e=0.4371647,-0.6461135,0.\Quadrupole=0.9051307,-2.8008359,1.8957053,-2
 .2791781,0.,0.\PG=CS [SG(Cl1H1S1),X(H2)]\\@

 Normal termination of Gaussian 16 at Wed Apr  9 19:30:44 2025.
