 Gaussian 16, Revision C.01,

 ----------------------------------------------------------------------
 #t hf aug-cc-pvdz symm=none int=(grid=ultrafine) guess=(read,tcheck) s
 table=(opt,rrhf)
 ----------------------------------------------------------------------
 -----
 title
 -----
 Symbolic Z-matrix:
 Charge =  0 Multiplicity = 1

 SCF Done:  E(RHF) =  -1054.89383407     A.U. after   14 cycles
 Normal termination of Gaussian 16 at Wed Apr  9 19:34:14 2025.
 Gaussian 16:  ES64L-G16RevC.01  3-Jul-2019

 ----------------------------------------------------------------------
 #t hf aug-cc-pvdz iop(5/13=1,5/36=2,99/5=2) pseudo=read geom=check gue
 ss=(read,tcheck) scf=(maxcycle=1)
 ----------------------------------------------------------------------
 -----
 title
 -----
 Structure from the checkpoint file:  "HB300SPXx10_1486_5.11_1.05_thioacetone_phosphineF2_dimer_mol1.chk"
 Charge =  0 Multiplicity = 1

                         Standard orientation:
 ---------------------------------------------------------------------
 Center     Atomic      Atomic             Coordinates (Angstroms)
 Number     Number       Type             X           Y           Z
 ---------------------------------------------------------------------
      1          1           0        0.691829    1.671683   -0.098576
      2          1           0        1.949602    1.918048    1.130512
      3          1           0        2.340545    2.149185   -0.557947
      4          1           0        3.883393   -1.186478    0.198023
      5          1           0        4.206268    0.406435   -0.520224
      6          6           0        1.743339    1.540480    0.125250
      7          6           0        2.171302    0.109171    0.037380
      8         16           0        1.133431   -1.110260   -0.252865
      9          6           0        3.635708   -0.131505    0.241119
     10          1           0        3.947771    0.277801    1.205290
     11         15           0       -2.027352   -0.256756    0.269785
     12          9           0       -3.627772   -0.092609    0.297728
     13          9           0       -1.709360    1.033496   -0.628811
     14          1           0       -2.011925   -1.198021   -0.800750
 ---------------------------------------------------------------------

 SCF Done:  E(RHF) =  -1055.30359432     A.U. after    2 cycles

 The electronic state is 1-A.
 Alpha  occ. eigenvalues --  -93.93341 -84.39919 -26.47237 -26.46562 -11.34153
 Alpha  occ. eigenvalues --  -11.25983 -11.25709  -8.21669  -6.85537  -6.19486
 Alpha  occ. eigenvalues --   -6.19292  -6.19079  -4.38324  -4.37714  -4.36661
 Alpha  occ. eigenvalues --   -1.61104  -1.56483  -1.14281  -0.98507  -0.97940
 Alpha  occ. eigenvalues --   -0.87173  -0.74236  -0.69889  -0.69695  -0.68155
 Alpha  occ. eigenvalues --   -0.63734  -0.63094  -0.63050  -0.62872  -0.60747
 Alpha  occ. eigenvalues --   -0.57327  -0.56896  -0.54696  -0.51440  -0.40679
 Alpha  occ. eigenvalues --   -0.37773  -0.34922
 Alpha virt. eigenvalues --    0.02991   0.03448   0.04278   0.05115   0.05891
 Alpha virt. eigenvalues --    0.06302   0.07176   0.07681   0.09102   0.09451
 Alpha virt. eigenvalues --    0.10303   0.11710   0.12414   0.14116   0.14413

 Mulliken charges:
               1
     1  H    0.018214
     2  H    0.296432
     3  H    0.280335
     4  H    0.172163
     5  H    0.256822
     6  C   -0.482620
     7  C   -0.539537
     8  S    0.172462
     9  C   -0.431238
    10  H    0.253367
    11  P    1.526003
    12  F   -0.791636
    13  F   -0.821817
    14  H    0.091051
 Sum of Mulliken charges =   0.00000

 Dipole moment (field-independent basis, Debye):
    X=              3.8631    Y=              1.2377    Z=              0.6536  Tot=              4.1089

 Test job not archived.
 1\1\GINC-SE162\SP\RHF\Aug-CC-pVDZ\C3H7F2P1S1\OHZDE\09-Apr-2025\0\\#t h
 f aug-cc-pvdz iop(5/13=1,5/36=2,99/5=2) pseudo=read geom=check guess=(
 read,tcheck) scf=(maxcycle=1)\\title\\0,1\H,0,-0.82524406,-0.11851319,
 -2.18150719\H,0,-1.6981931,1.21808686,-2.95919937\H,0,-0.71897066,0.14
 764096,-3.93512177\H,0,1.41759528,3.22175764,-3.68330427\H,0,0.7352472
 6,2.04678605,-4.82844268\C,0,-0.77357806,0.63435768,-2.9583614\C,0,0.3
 925438,1.55581911,-2.78347778\S,0,1.39271927,1.4865874,-1.50157001\C,0
 ,0.57891903,2.56210758,-3.87735604\H,0,-0.33203334,3.15446018,-3.99493

 Normal termination of Gaussian 16 at Wed Apr  9 19:34:19 2025.
