 Gaussian 16, Revision C.01,

 ----------------------------------------------------------------------
 #t hf aug-cc-pvdz symm=none int=(grid=ultrafine) guess=(read,tcheck) s
 table=(opt,rrhf)
 ----------------------------------------------------------------------
 -----
 title
 -----
 Symbolic Z-matrix:
 Charge =  0 Multiplicity = 1

 SCF Done:  E(RHF) =  -1017.02684644     A.U. after   12 cycles
 Normal termination of Gaussian 16 at Wed Apr  9 19:31:03 2025.
 Gaussian 16:  ES64L-G16RevC.01  3-Jul-2019

 ----------------------------------------------------------------------
 #t hf aug-cc-pvdz iop(5/13=1,5/36=2,99/5=2) pseudo=read geom=check gue
 ss=(read,tcheck) scf=(maxcycle=1)
 ----------------------------------------------------------------------
 -----
 title
 -----
 Structure from the checkpoint file:  "HB300SPXx10_1385_5.01_1.00_dimethylsulfide_phosphineF2_dimer_mol1.chk"
 Charge =  0 Multiplicity = 1

                         Standard orientation:
 ---------------------------------------------------------------------
 Center     Atomic      Atomic             Coordinates (Angstroms)
 Number     Number       Type             X           Y           Z
 ---------------------------------------------------------------------
      1          1           0       -0.673275    0.843642    1.428991
      2          1           0       -2.395232    1.304324    1.432253
      3          1           0       -1.215795    2.255200    0.512029
      4          1           0       -2.286232   -2.047271   -0.699874
      5          1           0       -3.000256   -1.283214    0.727786
      6          1           0       -1.263191   -1.677957    0.700047
      7          6           0       -1.486669    1.253359    0.835020
      8         16           0       -1.753308    0.264590   -0.658442
      9          6           0       -2.108791   -1.338631    0.105595
     10         15           0        2.109139   -0.325654   -0.341808
     11          9           0        1.297668   -0.961364    0.884137
     12          9           0        1.785566    1.216047   -0.082068
     13          1           0        1.073475   -0.523871   -1.301353
 ---------------------------------------------------------------------

 SCF Done:  E(RHF) =  -1017.40105455     A.U. after    2 cycles

 The electronic state is 1-A.
 Alpha  occ. eigenvalues --  -93.93730 -84.41033 -26.48630 -26.48475 -11.25910
 Alpha  occ. eigenvalues --  -11.25633  -8.21852  -6.86742  -6.19686  -6.19527
 Alpha  occ. eigenvalues --   -6.19304  -4.39586  -4.38842  -4.37906  -1.62811
 Alpha  occ. eigenvalues --   -1.58330  -1.08214  -0.95668  -0.88579  -0.82464
 Alpha  occ. eigenvalues --   -0.71679  -0.71283  -0.69788  -0.65457  -0.62558
 Alpha  occ. eigenvalues --   -0.60921  -0.60750  -0.58423  -0.57819  -0.56946
 Alpha  occ. eigenvalues --   -0.50211  -0.44225  -0.38788  -0.34091
 Alpha virt. eigenvalues --    0.03862   0.04244   0.04786   0.05572   0.06535
 Alpha virt. eigenvalues --    0.06850   0.07574   0.08673   0.09622   0.09850
 Alpha virt. eigenvalues --    0.12108   0.13776   0.14801   0.15912   0.16205

 Mulliken charges:
               1
     1  H    0.165103
     2  H    0.149631
     3  H    0.140787
     4  H    0.143375
     5  H    0.163305
     6  H    0.141516
     7  C   -0.614439
     8  S    0.327542
     9  C   -0.654362
    10  P    1.384929
    11  F   -0.744272
    12  F   -0.726741
    13  H    0.123624
 Sum of Mulliken charges =  -0.00000

 Dipole moment (field-independent basis, Debye):
    X=              0.1025    Y=             -1.0245    Z=              0.3995  Tot=              1.1044

 Test job not archived.
 1\1\GINC-SE112\SP\RHF\Aug-CC-pVDZ\C2H7F2P1S1\OHZDE\09-Apr-2025\0\\#t h
 f aug-cc-pvdz iop(5/13=1,5/36=2,99/5=2) pseudo=read geom=check guess=(
 read,tcheck) scf=(maxcycle=1)\\title\\0,1\H,0,0.35324965,2.18742239,-0
 .72380577\H,0,0.23256961,2.54349189,-2.46622469\H,0,1.47961489,1.43776
 879,-1.86264863\H,0,-2.97879656,0.33269977,-1.6977403\H,0,-2.43534977,
 1.89515642,-2.32640837\H,0,-2.24831697,1.5140911,-0.59615001\C,0,0.456
 3691,1.7777672,-1.72571744\S,0,-0.61885679,0.337269,-1.94490696\C,0,-2
 .22218849,1.10820804,-1.60517522\P,0,0.08256794,-0.13074574,1.88342285

 Normal termination of Gaussian 16 at Wed Apr  9 19:31:07 2025.
