 Gaussian 16, Revision C.01,

 ----------------------------------------------------------------------
 #t hf aug-cc-pvdz symm=none int=(grid=ultrafine) guess=(read,tcheck) s
 table=(opt,rrhf)
 ----------------------------------------------------------------------
 -----
 title
 -----
 Symbolic Z-matrix:
 Charge =  0 Multiplicity = 1

 SCF Done:  E(RHF) =  -1054.89114673     A.U. after   15 cycles
 Normal termination of Gaussian 16 at Wed Apr  9 19:34:16 2025.
 Gaussian 16:  ES64L-G16RevC.01  3-Jul-2019

 ----------------------------------------------------------------------
 #t hf aug-cc-pvdz iop(5/13=1,5/36=2,99/5=2) pseudo=read geom=check gue
 ss=(read,tcheck) scf=(maxcycle=1)
 ----------------------------------------------------------------------
 -----
 title
 -----
 Structure from the checkpoint file:  "HB300SPXx10_1484_5.11_0.95_thioacetone_phosphineF2_dimer_mol1.chk"
 Charge =  0 Multiplicity = 1

                         Standard orientation:
 ---------------------------------------------------------------------
 Center     Atomic      Atomic             Coordinates (Angstroms)
 Number     Number       Type             X           Y           Z
 ---------------------------------------------------------------------
      1          1           0        0.568119    1.650221   -0.122727
      2          1           0        1.810104    1.916844    1.118132
      3          1           0        2.215602    2.145744   -0.567197
      4          1           0        3.790688   -1.167867    0.218685
      5          1           0        4.101714    0.425867   -0.502964
      6          6           0        1.618774    1.532673    0.112419
      7          6           0        2.064845    0.106299    0.035009
      8         16           0        1.044797   -1.126786   -0.260684
      9          6           0        3.529871   -0.115800    0.254765
     10          1           0        3.827028    0.301218    1.220340
     11         15           0       -1.903860   -0.245697    0.278501
     12          9           0       -3.506345   -0.100813    0.289343
     13          9           0       -1.592209    1.044599   -0.622252
     14          1           0       -1.866059   -1.191104   -0.787819
 ---------------------------------------------------------------------

 SCF Done:  E(RHF) =  -1055.30173516     A.U. after    2 cycles

 The electronic state is 1-A.
 Alpha  occ. eigenvalues --  -93.93497 -84.39635 -26.47158 -26.46191 -11.34320
 Alpha  occ. eigenvalues --  -11.26085 -11.25662  -8.21859  -6.85243  -6.19670
 Alpha  occ. eigenvalues --   -6.19473  -6.19270  -4.38053  -4.37447  -4.36381
 Alpha  occ. eigenvalues --   -1.60966  -1.56295  -1.14442  -0.98734  -0.98017
 Alpha  occ. eigenvalues --   -0.87025  -0.74462  -0.69758  -0.69541  -0.68135
 Alpha  occ. eigenvalues --   -0.63677  -0.63186  -0.63140  -0.62932  -0.60557
 Alpha  occ. eigenvalues --   -0.57377  -0.56835  -0.54659  -0.51410  -0.41082
 Alpha  occ. eigenvalues --   -0.37707  -0.34835
 Alpha virt. eigenvalues --    0.02970   0.03387   0.04263   0.05097   0.05792
 Alpha virt. eigenvalues --    0.06317   0.07162   0.07740   0.09182   0.09440
 Alpha virt. eigenvalues --    0.10436   0.11804   0.12448   0.14127   0.14413

 Mulliken charges:
               1
     1  H   -0.004718
     2  H    0.301948
     3  H    0.284493
     4  H    0.172366
     5  H    0.257211
     6  C   -0.471904
     7  C   -0.533007
     8  S    0.171421
     9  C   -0.424735
    10  H    0.254283
    11  P    1.519676
    12  F   -0.790044
    13  F   -0.844590
    14  H    0.107600
 Sum of Mulliken charges =  -0.00000

 Dipole moment (field-independent basis, Debye):
    X=              3.9689    Y=              1.2570    Z=              0.6347  Tot=              4.2113

 Test job not archived.
 1\1\GINC-SE135\SP\RHF\Aug-CC-pVDZ\C3H7F2P1S1\OHZDE\09-Apr-2025\0\\#t h
 f aug-cc-pvdz iop(5/13=1,5/36=2,99/5=2) pseudo=read geom=check guess=(
 read,tcheck) scf=(maxcycle=1)\\title\\0,1\H,0,-0.82524406,-0.11851319,
 -2.18150719\H,0,-1.6981931,1.21808686,-2.95919937\H,0,-0.71897066,0.14
 764096,-3.93512177\H,0,1.41759528,3.22175764,-3.68330427\H,0,0.7352472
 6,2.04678605,-4.82844268\C,0,-0.77357806,0.63435768,-2.9583614\C,0,0.3
 925438,1.55581911,-2.78347778\S,0,1.39271927,1.4865874,-1.50157001\C,0
 ,0.57891903,2.56210758,-3.87735604\H,0,-0.33203334,3.15446018,-3.99493

 Normal termination of Gaussian 16 at Wed Apr  9 19:34:21 2025.
