 Gaussian 16, Revision C.01,

 ----------------------------------------------------------------------
 #t hf aug-cc-pvdz symm=none int=(grid=ultrafine) guess=(read,tcheck) s
 table=(opt,rrhf)
 ----------------------------------------------------------------------
 -----
 title
 -----
 Symbolic Z-matrix:
 Charge =  0 Multiplicity = 1

 SCF Done:  E(RHF) =  -858.788851011     A.U. after   11 cycles

 1\1\GINC-SE016\Stability\RHF\Aug-CC-pVDZ\Cl1H3S1\OHZDE\09-Apr-2025\0\\
 #t hf aug-cc-pvdz symm=none int=(grid=ultrafine) guess=(read,tcheck) s
 table=(opt,rrhf)\\title\\0,1\H,0,-0.07574771,0.51696812,0.\Cl,0,0.0020
 5903,1.81286821,0.\H,0,0.86840242,-1.69143939,0.97032462\H,0,0.8684024
 2,-1.69143939,-0.97032462\S,0,-0.05684469,-1.63792396,0.\\Version=ES64
 L-G16RevC.01\HF=-858.788851\RMSD=4.143e-09\Dipole=0.4299321,-0.975532,
 0.\Quadrupole=0.6463381,-2.2432581,1.59692,-1.6494842,0.,0.\PG=Unknown
 \\@

 Normal termination of Gaussian 16 at Wed Apr  9 19:30:42 2025.
 Gaussian 16:  ES64L-G16RevC.01  3-Jul-2019

 ----------------------------------------------------------------------
 #t hf aug-cc-pvdz iop(5/13=1,5/36=2,99/5=2) pseudo=read geom=check gue
 ss=(read,tcheck) scf=(maxcycle=1)
 ----------------------------------------------------------------------
 -----
 title
 -----
 Structure from the checkpoint file:  "HB300SPXx10_1353_4.40_0.90_hydrogenchloride_sulfane_dimer_mol1.chk"
 Charge =  0 Multiplicity = 1

                         Standard orientation:
 ---------------------------------------------------------------------
 Center     Atomic      Atomic             Coordinates (Angstroms)
 Number     Number       Type             X           Y           Z
 ---------------------------------------------------------------------
      1          1           0       -0.105577    0.466732    0.000000
      2         17           0       -0.049899    1.763772    0.000000
      3          1           0        0.876126   -1.725240    0.970325
      4          1           0        0.876126   -1.725240   -0.970325
      5         16           0       -0.049899   -1.687523   -0.000000
 ---------------------------------------------------------------------

 SCF Done:  E(RHF) =  -858.931454144     A.U. after    2 cycles

 The electronic state is 1-A'.
 Alpha  occ. eigenvalues -- -105.55447 -93.99151 -10.60289  -8.27294  -7.77260
 Alpha  occ. eigenvalues --   -7.76900  -7.76899  -6.25148  -6.25034  -6.24818
 Alpha  occ. eigenvalues --   -1.05999  -1.03937  -0.62379  -0.62040  -0.53527
 Alpha  occ. eigenvalues --   -0.46327  -0.46309  -0.41816
 Alpha virt. eigenvalues --    0.03003   0.05434   0.06599   0.09783   0.10267
 Alpha virt. eigenvalues --    0.12477   0.15778   0.15850   0.16264   0.16942
 Alpha virt. eigenvalues --    0.18864   0.22359   0.24946   0.26372   0.26611

 Mulliken charges:
               1
     1  H    0.332629
     2  Cl  -0.202735
     3  H    0.320317
     4  H    0.320317
     5  S   -0.770527
 Sum of Mulliken charges =   0.00000

 Dipole moment (field-independent basis, Debye):
    X=              1.1841    Y=             -2.4834    Z=             -0.0000  Tot=              2.7512

 Test job not archived.
 1\1\GINC-SE016\SP\RHF\Aug-CC-pVDZ\Cl1H3S1\OHZDE\09-Apr-2025\0\\#t hf a
 ug-cc-pvdz iop(5/13=1,5/36=2,99/5=2) pseudo=read geom=check guess=(rea
 d,tcheck) scf=(maxcycle=1)\\title\\0,1\H,0,-0.07574771,0.51696812,0.\C
 l,0,0.00205903,1.81286821,0.\H,0,0.86840242,-1.69143939,0.97032462\H,0
 ,0.86840242,-1.69143939,-0.97032462\S,0,-0.05684469,-1.63792396,0.\\Ve
 rsion=ES64L-G16RevC.01\State=1-A'\HF=-858.9314541\RMSD=4.695e-03\Dipol
 e=0.4491152,-0.9848369,0.\Quadrupole=0.553857,-2.1102315,1.5563745,-1.
 7121678,0.,0.\PG=CS [SG(Cl1H1S1),X(H2)]\\@

 Normal termination of Gaussian 16 at Wed Apr  9 19:30:43 2025.
