 Gaussian 16, Revision C.01,

 ----------------------------------------------------------------------
 #t hf aug-cc-pvdz symm=none int=(grid=ultrafine) guess=(read,tcheck) s
 table=(opt,rrhf)
 ----------------------------------------------------------------------
 -----
 title
 -----
 Symbolic Z-matrix:
 Charge =  0 Multiplicity = 1

 SCF Done:  E(RHF) =  -1091.85156264     A.U. after   14 cycles
 Normal termination of Gaussian 16 at Wed Apr  9 19:32:21 2025.
 Gaussian 16:  ES64L-G16RevC.01  3-Jul-2019

 ----------------------------------------------------------------------
 #t hf aug-cc-pvdz iop(5/13=1,5/36=2,99/5=2) pseudo=read geom=check gue
 ss=(read,tcheck) scf=(maxcycle=1)
 ----------------------------------------------------------------------
 -----
 title
 -----
 Structure from the checkpoint file:  "HB300SPXx10_1404_5.03_0.95_dimethylsulfoxide_phosphineF2_dimer_mol1.chk"
 Charge =  0 Multiplicity = 1

                         Standard orientation:
 ---------------------------------------------------------------------
 Center     Atomic      Atomic             Coordinates (Angstroms)
 Number     Number       Type             X           Y           Z
 ---------------------------------------------------------------------
      1          1           0        2.013983    1.676014   -1.461941
      2          1           0        2.824615    1.764865    0.120377
      3          1           0        1.030730    1.819990    0.020461
      4          1           0        1.541529   -1.590564    1.682941
      5          1           0        0.822253    0.039507    1.785540
      6          6           0        1.941637    1.413299   -0.409995
      7         16           0        1.883959   -0.395310   -0.328884
      8          8           0        0.586350   -0.813785   -0.945858
      9          6           0        1.687040   -0.535731    1.466612
     10          1           0        2.596135   -0.180518    1.947964
     11         15           0       -1.753837   -0.371772   -0.097452
     12          9           0       -3.290486    0.096110    0.072034
     13          9           0       -1.094780    0.970588    0.518614
     14          1           0       -1.660484    0.016841   -1.460088
 ---------------------------------------------------------------------

 SCF Done:  E(RHF) =  -1092.30114814     A.U. after    2 cycles

 The electronic state is 1-A.
 Alpha  occ. eigenvalues --  -94.08262 -84.38235 -26.46322 -26.44598 -20.51380
 Alpha  occ. eigenvalues --  -11.28216 -11.28068  -8.35181  -6.83796  -6.33046
 Alpha  occ. eigenvalues --   -6.32892  -6.32674  -4.36552  -4.36029  -4.34939
 Alpha  occ. eigenvalues --   -1.59715  -1.54932  -1.45671  -1.10215  -0.99404
 Alpha  occ. eigenvalues --   -0.86537  -0.84648  -0.69140  -0.68696  -0.67669
 Alpha  occ. eigenvalues --   -0.65169  -0.64843  -0.64498  -0.62496  -0.60234
 Alpha  occ. eigenvalues --   -0.59726  -0.59161  -0.56526  -0.54384  -0.53236
 Alpha  occ. eigenvalues --   -0.44229  -0.38894  -0.34984
 Alpha virt. eigenvalues --    0.02794   0.03760   0.04761   0.05238   0.06629
 Alpha virt. eigenvalues --    0.06907   0.07687   0.08605   0.09581   0.10957
 Alpha virt. eigenvalues --    0.12300   0.12823   0.13178   0.14665   0.15136

 Mulliken charges:
               1
     1  H    0.189160
     2  H    0.191826
     3  H    0.195883
     4  H    0.201379
     5  H    0.193595
     6  C   -0.607578
     7  S    1.615498
     8  O   -1.442197
     9  C   -0.620941
    10  H    0.192071
    11  P    1.487338
    12  F   -0.784990
    13  F   -0.870258
    14  H    0.059214
 Sum of Mulliken charges =  -0.00000

 Dipole moment (field-independent basis, Debye):
    X=              4.5458    Y=              1.2621    Z=              1.4904  Tot=              4.9475

 Test job not archived.
 1\1\GINC-SE125\SP\RHF\Aug-CC-pVDZ\C2H7F2O1P1S1\OHZDE\09-Apr-2025\0\\#t
  hf aug-cc-pvdz iop(5/13=1,5/36=2,99/5=2) pseudo=read geom=check guess
 =(read,tcheck) scf=(maxcycle=1)\\title\\0,1\H,0,1.67395499,0.82417178,
 -3.38423362\H,0,0.49124302,-0.02078366,-4.41184902\H,0,0.89589517,-0.6
 6534236,-2.78340018\H,0,-2.718683,0.46280377,-2.2188292\H,0,-1.5421980
 9,-0.87905323,-2.20106353\C,0,0.76564588,0.22768029,-3.38836814\S,0,-0
 .5351395,1.25679703,-2.66046249\O,0,-0.17783951,1.44910918,-1.22000404
 \C,0,-1.85989706,0.022286,-2.71790313\H,0,-2.10168806,-0.18449539,-3.7

 Normal termination of Gaussian 16 at Wed Apr  9 19:32:27 2025.
