 Gaussian 16, Revision C.01,

 ----------------------------------------------------------------------
 #t hf aug-cc-pvdz symm=none int=(grid=ultrafine) guess=(read,tcheck) s
 table=(opt,rrhf)
 ----------------------------------------------------------------------
 -----
 title
 -----
 Symbolic Z-matrix:
 Charge =  0 Multiplicity = 1

 SCF Done:  E(RHF) =  -952.380602731     A.U. after   12 cycles

 1\1\GINC-SE212\Stability\RHF\Aug-CC-pVDZ\C4H10S2\OHZDE\09-Apr-2025\0\\
 #t hf aug-cc-pvdz symm=none int=(grid=ultrafine) guess=(read,tcheck) s
 table=(opt,rrhf)\\title\\0,1\H,0,1.25927999,1.11406487,-0.28265552\H,0
 ,2.28279017,2.73418341,-0.67577847\S,0,1.07110419,2.4516331,-0.1764195
 4\H,0,0.21518023,-0.15605707,1.79002032\H,0,0.12536147,-1.89927079,2.0
 7102902\H,0,-2.17762114,-0.54449181,1.88202139\H,0,-1.19503381,-1.8676
 6289,-1.67347666\H,0,-2.03024162,-2.06271768,0.99971482\H,0,-0.4907861
 2,-0.28186075,-2.01700045\H,0,-2.80306759,-0.38846877,-0.64316213\H,0,

 Normal termination of Gaussian 16 at Wed Apr  9 19:29:14 2025.
 Gaussian 16:  ES64L-G16RevC.01  3-Jul-2019

 ----------------------------------------------------------------------
 #t hf aug-cc-pvdz iop(5/13=1,5/36=2,99/5=2) pseudo=read geom=check gue
 ss=(read,tcheck) scf=(maxcycle=1)
 ----------------------------------------------------------------------
 -----
 title
 -----
 Structure from the checkpoint file:  "HB300SPXx10_1236_4.28_1.05_sulfane_tetrahydrothiophene_dimer_mol1.chk"
 Charge =  0 Multiplicity = 1

                         Standard orientation:
 ---------------------------------------------------------------------
 Center     Atomic      Atomic             Coordinates (Angstroms)
 Number     Number       Type             X           Y           Z
 ---------------------------------------------------------------------
      1          1           0       -1.726903   -0.576656   -0.010770
      2          1           0       -3.673789   -0.710842    0.125352
      3         16           0       -2.784611    0.264059   -0.111940
      4          1           0        0.131405    0.021269   -1.796412
      5          1           0        1.722341   -0.720414   -2.007729
      6          1           0        1.630816    1.885318   -1.394003
      7          1           0        1.872154   -0.186145    1.923921
      8          1           0        2.770091    0.863864   -0.520002
      9          1           0        0.114690   -0.056878    2.076731
     10          1           0        1.487439    2.086278    1.200440
     11          1           0       -0.026027    1.655964    0.415970
     12         16           0        0.745308   -1.332597    0.116415
     13          6           0        1.073371   -0.209915   -1.301563
     14          6           0        1.710231    1.043252   -0.706317
     15          6           0        0.990265    1.313870    0.613808
     16          6           0        0.947241   -0.008067    1.379890
 ---------------------------------------------------------------------

 SCF Done:  E(RHF) =  -952.676327379     A.U. after    2 cycles

 The electronic state is 1-A.
 Alpha  occ. eigenvalues --  -93.95161 -93.93715 -11.26591 -11.26573 -11.24414
 Alpha  occ. eigenvalues --  -11.24361  -8.23266  -8.21839  -6.21147  -6.21029
 Alpha  occ. eigenvalues --   -6.20791  -6.19640  -6.19522  -6.19301  -1.14302
 Alpha  occ. eigenvalues --   -1.00812  -0.99456  -0.98891  -0.80433  -0.80121
 Alpha  occ. eigenvalues --   -0.67160  -0.65529  -0.61210  -0.58924  -0.55944
 Alpha  occ. eigenvalues --   -0.51936  -0.50690  -0.49991  -0.49148  -0.49051
 Alpha  occ. eigenvalues --   -0.43606  -0.38223  -0.34576
 Alpha virt. eigenvalues --    0.03446   0.03866   0.04103   0.04262   0.05784
 Alpha virt. eigenvalues --    0.06413   0.06811   0.07684   0.08099   0.08945
 Alpha virt. eigenvalues --    0.11415   0.12732   0.13127   0.14419   0.14600

 Mulliken charges:
               1
     1  H    0.391052
     2  H    0.208417
     3  S   -0.564766
     4  H    0.103271
     5  H    0.159655
     6  H    0.140283
     7  H    0.134169
     8  H    0.107046
     9  H    0.133753
    10  H    0.155041
    11  H    0.051826
    12  S    0.366316
    13  C   -0.446616
    14  C   -0.241878
    15  C   -0.276111
    16  C   -0.421459
 Sum of Mulliken charges =   0.00000

 Dipole moment (field-independent basis, Debye):
    X=              1.1359    Y=              0.9550    Z=              0.1101  Tot=              1.4881

 Test job not archived.
 1\1\GINC-SE212\SP\RHF\Aug-CC-pVDZ\C4H10S2\OHZDE\09-Apr-2025\0\\#t hf a
 ug-cc-pvdz iop(5/13=1,5/36=2,99/5=2) pseudo=read geom=check guess=(rea
 d,tcheck) scf=(maxcycle=1)\\title\\0,1\H,0,1.25927999,1.11406487,-0.28
 265552\H,0,2.28279017,2.73418341,-0.67577847\S,0,1.07110419,2.4516331,
 -0.17641954\H,0,0.21518023,-0.15605707,1.79002032\H,0,0.12536147,-1.89
 927079,2.07102902\H,0,-2.17762114,-0.54449181,1.88202139\H,0,-1.195033
 81,-1.86766289,-1.67347666\H,0,-2.03024162,-2.06271768,0.99971482\H,0,
 -0.49078612,-0.28186075,-2.01700045\H,0,-2.80306759,-0.38846877,-0.643

 Normal termination of Gaussian 16 at Wed Apr  9 19:29:20 2025.
