 Gaussian 16, Revision C.01,

 ----------------------------------------------------------------------
 #t hf aug-cc-pvdz symm=none int=(grid=ultrafine) guess=(read,tcheck) s
 table=(opt,rrhf)
 ----------------------------------------------------------------------
 -----
 title
 -----
 Symbolic Z-matrix:
 Charge =  0 Multiplicity = 1

 SCF Done:  E(RHF) =  -989.364005927     A.U. after   13 cycles
 Normal termination of Gaussian 16 at Wed Apr  9 19:27:11 2025.
 Gaussian 16:  ES64L-G16RevC.01  3-Jul-2019

 ----------------------------------------------------------------------
 #t hf aug-cc-pvdz iop(5/13=1,5/36=2,99/5=2) pseudo=read geom=check gue
 ss=(read,tcheck) scf=(maxcycle=1)
 ----------------------------------------------------------------------
 -----
 title
 -----
 Structure from the checkpoint file:  "HB300SPXx10_1144_4.19_0.95_methanol_dimethyldisulfide_dimer_mol1.chk"
 Charge =  0 Multiplicity = 1

                         Standard orientation:
 ---------------------------------------------------------------------
 Center     Atomic      Atomic             Coordinates (Angstroms)
 Number     Number       Type             X           Y           Z
 ---------------------------------------------------------------------
      1          8           0        2.720296    0.180407   -0.140780
      2          1           0        1.897127    0.365045   -0.609034
      3          6           0        2.712117   -1.184080    0.249219
      4          1           0        3.630225   -1.365697    0.803787
      5          1           0        1.862913   -1.420557    0.896744
      6          1           0        2.690297   -1.856821   -0.612904
      7          1           0       -3.148328   -1.686325    0.577403
      8          1           0       -3.260566   -0.414563   -0.658835
      9          1           0       -2.948581    0.012105    1.045577
     10          1           0        0.745535    1.348694    1.385239
     11          1           0       -0.948210    1.928991    1.420121
     12          1           0        0.283536    2.817208    0.501886
     13          6           0       -2.767488   -0.716423    0.260327
     14         16           0       -0.983469   -0.943406   -0.020517
     15         16           0       -0.388380    0.896624   -0.705148
     16          6           0       -0.047416    1.830032    0.821601
 ---------------------------------------------------------------------

 SCF Done:  E(RHF) =  -989.698862747     A.U. after    2 cycles

 The electronic state is 1-A.
 Alpha  occ. eigenvalues --  -93.97944 -93.97642 -20.52744 -11.27710 -11.27329
 Alpha  occ. eigenvalues --  -11.26760  -8.25939  -8.25657  -6.23746  -6.23532
 Alpha  occ. eigenvalues --   -6.23462  -6.23330  -6.23253  -6.23025  -1.42725
 Alpha  occ. eigenvalues --   -1.12811  -1.03431  -0.92765  -0.91542  -0.81849
 Alpha  occ. eigenvalues --   -0.68076  -0.62667  -0.61808  -0.61353  -0.60082
 Alpha  occ. eigenvalues --   -0.59418  -0.58036  -0.54948  -0.50925  -0.49112
 Alpha  occ. eigenvalues --   -0.45813  -0.42779  -0.37710  -0.36663
 Alpha virt. eigenvalues --    0.03172   0.03826   0.04372   0.04830   0.05806
 Alpha virt. eigenvalues --    0.06174   0.06821   0.07960   0.08160   0.09171
 Alpha virt. eigenvalues --    0.10010   0.11211   0.13094   0.13523   0.14045

 Mulliken charges:
               1
     1  O   -1.120112
     2  H    0.631977
     3  C    0.478287
     4  H    0.005590
     5  H    0.086869
     6  H    0.074951
     7  H    0.169193
     8  H    0.227994
     9  H    0.177451
    10  H    0.108917
    11  H    0.149008
    12  H    0.200291
    13  C   -0.818280
    14  S    0.282041
    15  S   -0.102050
    16  C   -0.552127
 Sum of Mulliken charges =  -0.00000

 Dipole moment (field-independent basis, Debye):
    X=             -3.1134    Y=              0.0602    Z=              1.4164  Tot=              3.4210

 Test job not archived.
 1\1\GINC-SE219\SP\RHF\Aug-CC-pVDZ\C3H10O1S2\OHZDE\09-Apr-2025\0\\#t hf
  aug-cc-pvdz iop(5/13=1,5/36=2,99/5=2) pseudo=read geom=check guess=(r
 ead,tcheck) scf=(maxcycle=1)\\title\\0,1\O,0,-0.42925951,1.22968046,-2
 .50380826\H,0,-0.36156068,1.36890772,-1.5514469\C,0,-1.37991091,0.2017
 0921,-2.7351714\H,0,-1.41855104,0.0350798,-3.80950666\H,0,-1.09677682,
 -0.73598734,-2.24842974\H,0,-2.37984798,0.48334645,-2.39294418\H,0,-0.
 57272873,-2.5417492,2.41523284\H,0,-0.10729611,-0.97096871,3.10391543\
 H,0,1.05953938,-1.90936862,2.13319358\H,0,1.68729178,-0.04598043,-1.28

 Normal termination of Gaussian 16 at Wed Apr  9 19:27:16 2025.
