 Gaussian 16, Revision C.01,

 ----------------------------------------------------------------------
 #t hf aug-cc-pvdz symm=none int=(grid=ultrafine) guess=(read,tcheck) s
 table=(opt,rrhf)
 ----------------------------------------------------------------------
 -----
 title
 -----
 Symbolic Z-matrix:
 Charge =  0 Multiplicity = 1

 SCF Done:  E(RHF) =  -648.911705959     A.U. after   13 cycles
 Normal termination of Gaussian 16 at Wed Apr  9 19:25:37 2025.
 Gaussian 16:  ES64L-G16RevC.01  3-Jul-2019

 ----------------------------------------------------------------------
 #t hf aug-cc-pvdz iop(5/13=1,5/36=2,99/5=2) pseudo=read geom=check gue
 ss=(read,tcheck) scf=(maxcycle=1)
 ----------------------------------------------------------------------
 -----
 title
 -----
 Structure from the checkpoint file:  "HB300SPXx10_1084_4.12_0.95_methylamine_tetrahydrothiophene_dimer_mol1.chk"
 Charge =  0 Multiplicity = 1

                         Standard orientation:
 ---------------------------------------------------------------------
 Center     Atomic      Atomic             Coordinates (Angstroms)
 Number     Number       Type             X           Y           Z
 ---------------------------------------------------------------------
      1          7           0       -2.181340   -0.275829   -0.831868
      2          1           0       -1.474536   -0.871019   -0.412677
      3          1           0       -2.728336   -0.854505   -1.455146
      4          6           0       -3.030896    0.311953    0.202543
      5          1           0       -3.797052    0.931481   -0.262620
      6          1           0       -3.532345   -0.411929    0.855607
      7          1           0       -2.429361    0.965998    0.833936
      8          1           0        1.432031    0.569082    2.034147
      9          1           0       -0.322828    0.448690    1.876878
     10          1           0        0.925947    2.444074    0.586721
     11          1           0        0.508129   -0.587265   -1.792250
     12          1           0       -0.313566    1.526361   -0.275800
     13          1           0        2.175891   -1.087032   -1.461740
     14          1           0        1.667942    1.530693   -1.735128
     15          1           0        2.691043    1.013941   -0.395541
     16         16           0        0.804196   -1.218611    0.527383
     17          6           0        0.615465    0.428300    1.328746
     18          6           0        0.663572    1.458404    0.201550
     19          6           0        1.685209    0.948350   -0.813793
     20          6           0        1.333199   -0.512005   -1.087618
 ---------------------------------------------------------------------

 SCF Done:  E(RHF) =  -649.252728216     A.U. after    2 cycles

 The electronic state is 1-A.
 Alpha  occ. eigenvalues --  -93.93054 -15.47140 -11.26048 -11.25805 -11.24771
 Alpha  occ. eigenvalues --  -11.23662 -11.23312  -8.21183  -6.18983  -6.18866
 Alpha  occ. eigenvalues --   -6.18648  -1.16447  -1.13512  -0.98787  -0.98198
 Alpha  occ. eigenvalues --   -0.90138  -0.79646  -0.79469  -0.69260  -0.65894
 Alpha  occ. eigenvalues --   -0.64738  -0.62517  -0.60498  -0.57642  -0.55321
 Alpha  occ. eigenvalues --   -0.52855  -0.51180  -0.49864  -0.48445  -0.48386
 Alpha  occ. eigenvalues --   -0.43043  -0.41953  -0.34128
 Alpha virt. eigenvalues --    0.03578   0.03746   0.03862   0.04233   0.05704
 Alpha virt. eigenvalues --    0.05791   0.05844   0.06711   0.07509   0.08462
 Alpha virt. eigenvalues --    0.08943   0.09644   0.10422   0.11840   0.13391

 Mulliken charges:
               1
     1  N    0.052228
     2  H   -0.006641
     3  H    0.258055
     4  C   -0.404127
     5  H    0.076717
     6  H    0.091235
     7  H    0.021206
     8  H    0.126589
     9  H    0.146394
    10  H    0.148327
    11  H    0.148682
    12  H    0.186476
    13  H    0.144187
    14  H    0.125134
    15  H    0.099028
    16  S    0.349582
    17  C   -0.577900
    18  C   -0.239587
    19  C   -0.308428
    20  C   -0.437160
 Sum of Mulliken charges =   0.00000

 Dipole moment (field-independent basis, Debye):
    X=             -0.1480    Y=              1.1243    Z=             -0.1344  Tot=              1.1419

 Test job not archived.
 1\1\GINC-SE131\SP\RHF\Aug-CC-pVDZ\C5H13N1S1\OHZDE\09-Apr-2025\0\\#t hf
  aug-cc-pvdz iop(5/13=1,5/36=2,99/5=2) pseudo=read geom=check guess=(r
 ead,tcheck) scf=(maxcycle=1)\\title\\0,1\N,0,-0.48023551,2.04199658,1.
 33183501\H,0,-0.98136805,1.22913012,0.98881982\H,0,-1.14375731,2.80345
 765,1.38144373\C,0,0.08991425,1.76981847,2.65020044\H,0,0.60698078,2.6
 5693888,3.01468146\H,0,-0.63523497,1.46399211,3.41346792\H,0,0.8338340
 5,0.97768014,2.5643137\H,0,0.86631692,-2.29144429,0.1518098\H,0,0.5764
 9486,-1.14883464,1.466803\H,0,2.59454665,-0.63737524,-0.22771151\H,0,-

 Normal termination of Gaussian 16 at Wed Apr  9 19:25:46 2025.
