 Gaussian 16, Revision C.01,

 ----------------------------------------------------------------------
 #t hf aug-cc-pvdz symm=none int=(grid=ultrafine) guess=(read,tcheck) s
 table=(opt,rrhf)
 ----------------------------------------------------------------------
 -----
 title
 -----
 Symbolic Z-matrix:
 Charge =  0 Multiplicity = 1

 SCF Done:  E(RHF) =  -571.978456182     A.U. after   12 cycles
 Normal termination of Gaussian 16 at Wed Apr  9 19:30:06 2025.
 Gaussian 16:  ES64L-G16RevC.01  3-Jul-2019

 ----------------------------------------------------------------------
 #t hf aug-cc-pvdz iop(5/13=1,5/36=2,99/5=2) pseudo=read geom=check gue
 ss=(read,tcheck) scf=(maxcycle=1)
 ----------------------------------------------------------------------
 -----
 title
 -----
 Structure from the checkpoint file:  "HB300SPXx10_131_1.14_0.80_sulfane_trimethylamine_dimer_mol1.chk"
 Charge =  0 Multiplicity = 1

                         Standard orientation:
 ---------------------------------------------------------------------
 Center     Atomic      Atomic             Coordinates (Angstroms)
 Number     Number       Type             X           Y           Z
 ---------------------------------------------------------------------
      1          1           0       -0.812204    0.025682    0.000000
      2          1           0       -2.437475   -1.083784    0.000000
      3         16           0       -2.167800    0.229421    0.000000
      4          1           0        2.270063   -0.821566    1.303193
      5          1           0        0.775182   -0.261516    2.080506
      6          1           0        0.786632   -1.789388    1.197590
      7          1           0        0.786632   -1.789388   -1.197590
      8          1           0        2.270063   -0.821566   -1.303193
      9          1           0        0.775182   -0.261516   -2.080506
     10          1           0        2.269850    1.423483    0.000000
     11          1           0        0.781059    1.815693   -0.882789
     12          6           0        1.174871   -0.772051    1.205875
     13          7           0        0.755866   -0.077573    0.000000
     14          6           0        1.174871   -0.772051   -1.205875
     15          6           0        1.174871    1.314175    0.000000
     16          1           0        0.781059    1.815693    0.882789
 ---------------------------------------------------------------------

 SCF Done:  E(RHF) =  -572.235561402     A.U. after    2 cycles

 The electronic state is 1-A'.
 Alpha  occ. eigenvalues --  -93.90171 -15.51571 -11.26866 -11.26862 -11.26842
 Alpha  occ. eigenvalues --   -8.18524  -6.16399  -6.16272  -6.16067  -1.25672
 Alpha  occ. eigenvalues --   -0.98315  -0.98269  -0.97303  -0.84574  -0.70564
 Alpha  occ. eigenvalues --   -0.67647  -0.67618  -0.57762  -0.57667  -0.55424
 Alpha  occ. eigenvalues --   -0.54698  -0.54320  -0.54297  -0.48142  -0.37903
 Alpha  occ. eigenvalues --   -0.34777
 Alpha virt. eigenvalues --    0.03170   0.04212   0.04387   0.04692   0.05882
 Alpha virt. eigenvalues --    0.06088   0.06346   0.06861   0.07317   0.09874
 Alpha virt. eigenvalues --    0.10450   0.12587   0.13941   0.14605   0.14789

 Mulliken charges:
               1
     1  H    0.647298
     2  H    0.175384
     3  S   -0.616906
     4  H    0.194590
     5  H    0.129211
     6  H    0.122079
     7  H    0.122079
     8  H    0.194590
     9  H    0.129211
    10  H    0.171365
    11  H    0.127244
    12  C   -0.294713
    13  N   -0.592922
    14  C   -0.294713
    15  C   -0.341039
    16  H    0.127244
 Sum of Mulliken charges =  -0.00000

 Dipole moment (field-independent basis, Debye):
    X=              3.9109    Y=             -1.0445    Z=             -0.0000  Tot=              4.0479

 Test job not archived.
 1\1\GINC-SE018\SP\RHF\Aug-CC-pVDZ\C3H11N1S1\OHZDE\09-Apr-2025\0\\#t hf
  aug-cc-pvdz iop(5/13=1,5/36=2,99/5=2) pseudo=read geom=check guess=(r
 ead,tcheck) scf=(maxcycle=1)\\title\\0,1\H,0,0.06719299,0.97177334,0.\
 H,0,1.32304535,2.48678341,0.\S,0,-0.00955285,2.34044335,0.\H,0,0.62402
 625,-2.17594602,-1.30319342\H,0,0.20547231,-0.63544708,-2.08050641\H,0
 ,1.72565356,-0.788984,-1.19759028\H,0,1.72565356,-0.788984,1.19759028\
 H,0,0.62402625,-2.17594602,1.30319342\H,0,0.20547231,-0.63544708,2.080
 50641\H,0,-1.61126723,-1.96687959,0.\H,0,-1.86327527,-0.44805722,0.882

 Normal termination of Gaussian 16 at Wed Apr  9 19:30:10 2025.
