 Gaussian 16, Revision C.01,

 ----------------------------------------------------------------------
 #t hf aug-cc-pvdz symm=none int=(grid=ultrafine) guess=(read,tcheck) s
 table=(opt,rrhf)
 ----------------------------------------------------------------------
 -----
 title
 -----
 Symbolic Z-matrix:
 Charge =  0 Multiplicity = 1

 SCF Done:  E(RHF) =  -609.881874414     A.U. after   13 cycles
 Normal termination of Gaussian 16 at Wed Apr  9 19:24:13 2025.
 Gaussian 16:  ES64L-G16RevC.01  3-Jul-2019

 ----------------------------------------------------------------------
 #t hf aug-cc-pvdz iop(5/13=1,5/36=2,99/5=2) pseudo=read geom=check gue
 ss=(read,tcheck) scf=(maxcycle=1)
 ----------------------------------------------------------------------
 -----
 title
 -----
 Structure from the checkpoint file:  "HB300SPXx10_1052_4.09_0.85_ammonia_tetrahydrothiophene_dimer_mol1.chk"
 Charge =  0 Multiplicity = 1

                         Standard orientation:
 ---------------------------------------------------------------------
 Center     Atomic      Atomic             Coordinates (Angstroms)
 Number     Number       Type             X           Y           Z
 ---------------------------------------------------------------------
      1          7           0        2.437422   -0.676237   -0.309595
      2          1           0        1.929611    0.181772   -0.111403
      3          1           0        3.137457   -0.784985    0.413525
      4          1           0        2.934871   -0.537824   -1.180310
      5          1           0       -1.240908    0.213870    1.994032
      6          1           0        0.459362   -0.266301    2.044812
      7          1           0       -1.318727   -2.014783    1.049948
      8          1           0        0.253975    0.053031   -1.827857
      9          1           0        0.214754   -1.774764    0.204307
     10          1           0       -1.164699    1.110958   -1.854077
     11          1           0       -1.556004   -1.515174   -1.494162
     12          1           0       -2.427707   -0.391524   -0.452648
     13         16           0        0.030021    1.295096    0.241305
     14          6           0       -0.387498   -0.084256    1.388295
     15          6           0       -0.712492   -1.289308    0.506821
     16          6           0       -1.434170   -0.749993   -0.727190
     17          6           0       -0.593220    0.413199   -1.247906
 ---------------------------------------------------------------------

 SCF Done:  E(RHF) =  -610.178500571     A.U. after    2 cycles

 The electronic state is 1-A.
 Alpha  occ. eigenvalues --  -93.93018 -15.46847 -11.25948 -11.25912 -11.23566
 Alpha  occ. eigenvalues --  -11.22811  -8.21193  -6.18985  -6.18868  -6.18663
 Alpha  occ. eigenvalues --   -1.14060  -1.12678  -0.98729  -0.98185  -0.79555
 Alpha  occ. eigenvalues --   -0.79427  -0.67522  -0.65346  -0.64828  -0.64196
 Alpha  occ. eigenvalues --   -0.60387  -0.55091  -0.51115  -0.49688  -0.48773
 Alpha  occ. eigenvalues --   -0.48453  -0.45269  -0.42944  -0.34247
 Alpha virt. eigenvalues --    0.03583   0.03808   0.03927   0.04553   0.05987
 Alpha virt. eigenvalues --    0.06291   0.06507   0.07606   0.07878   0.09019
 Alpha virt. eigenvalues --    0.09335   0.11543   0.13147   0.14533   0.14854

 Mulliken charges:
               1
     1  N   -0.047860
     2  H   -0.216135
     3  H    0.203662
     4  H    0.222588
     5  H    0.096966
     6  H    0.166438
     7  H    0.138519
     8  H    0.178666
     9  H    0.211570
    10  H    0.139955
    11  H    0.124765
    12  H    0.114041
    13  S    0.263552
    14  C   -0.491022
    15  C   -0.285259
    16  C   -0.370997
    17  C   -0.449449
 Sum of Mulliken charges =  -0.00000

 Dipole moment (field-independent basis, Debye):
    X=             -0.1821    Y=             -0.8438    Z=             -0.2305  Tot=              0.8935

 Test job not archived.
 1\1\GINC-SE159\SP\RHF\Aug-CC-pVDZ\C4H11N1S1\OHZDE\09-Apr-2025\0\\#t hf
  aug-cc-pvdz iop(5/13=1,5/36=2,99/5=2) pseudo=read geom=check guess=(r
 ead,tcheck) scf=(maxcycle=1)\\title\\0,1\N,0,-1.82627315,2.2398073,0.1
 9813908\H,0,-1.3275361,1.71497926,-0.51540753\H,0,-2.80551666,2.240204
 76,-0.05849198\H,0,-1.50884454,3.19950412,0.14356214\H,0,-0.69571178,-
 2.02520911,-0.20256963\H,0,-1.99736279,-0.82958651,-0.21845509\H,0,-0.
 80003113,-1.36357764,2.12457691\H,0,0.86821391,1.71431086,0.45887428\H
 ,0,-1.13149737,0.31825586,1.69347796\H,0,2.17726437,0.68796255,-0.1457

 Normal termination of Gaussian 16 at Wed Apr  9 19:24:19 2025.
