 Gaussian 16, Revision C.01,

 ----------------------------------------------------------------------
 #t hf aug-cc-pvdz symm=none int=(grid=ultrafine) guess=(read,tcheck) s
 table=(opt,rrhf)
 ----------------------------------------------------------------------
 -----
 title
 -----
 Symbolic Z-matrix:
 Charge =  0 Multiplicity = 1

 SCF Done:  E(RHF) =  -601.588096008     A.U. after   14 cycles
 Normal termination of Gaussian 16 at Wed Apr  9 19:22:42 2025.
 Gaussian 16:  ES64L-G16RevC.01  3-Jul-2019

 ----------------------------------------------------------------------
 #t hf aug-cc-pvdz iop(5/13=1,5/36=2,99/5=2) pseudo=read geom=check gue
 ss=(read,tcheck) scf=(maxcycle=1)
 ----------------------------------------------------------------------
 -----
 title
 -----
 Structure from the checkpoint file:  "HB300SPXx10_101_1.11_0.80_sulfane_methylazide_dimer_mol1.chk"
 Charge =  0 Multiplicity = 1

                         Standard orientation:
 ---------------------------------------------------------------------
 Center     Atomic      Atomic             Coordinates (Angstroms)
 Number     Number       Type             X           Y           Z
 ---------------------------------------------------------------------
      1          1           0       -1.052432   -0.510252   -0.010883
      2          1           0       -2.543433   -0.477591    1.237987
      3         16           0       -2.383806   -0.329150   -0.085127
      4          1           0        1.015338    1.955139   -0.906524
      5          1           0        1.057261    1.990255    0.873357
      6          1           0       -0.485369    1.787973    0.022347
      7          6           0        0.571804    1.547266    0.002724
      8          7           0        0.664808    0.078039    0.029836
      9          7           0        1.795615   -0.393803    0.004122
     10          7           0        2.785107   -0.936053   -0.015472
 ---------------------------------------------------------------------

 SCF Done:  E(RHF) =  -601.855984235     A.U. after    2 cycles

 The electronic state is 1-A.
 Alpha  occ. eigenvalues --  -93.93517 -15.73563 -15.62207 -15.56123 -11.29311
 Alpha  occ. eigenvalues --   -8.21741  -6.19619  -6.19501  -6.19272  -1.53099
 Alpha  occ. eigenvalues --   -1.34641  -1.03495  -0.99836  -0.79635  -0.77806
 Alpha  occ. eigenvalues --   -0.77007  -0.73255  -0.62013  -0.60873  -0.57913
 Alpha  occ. eigenvalues --   -0.51739  -0.46500  -0.44479  -0.37249
 Alpha virt. eigenvalues --    0.03046   0.05014   0.05279   0.05555   0.06439
 Alpha virt. eigenvalues --    0.07704   0.09217   0.09520   0.10564   0.11204
 Alpha virt. eigenvalues --    0.13196   0.13874   0.15699   0.16299   0.17338

 Mulliken charges:
               1
     1  H    0.480201
     2  H    0.247722
     3  S   -0.620710
     4  H    0.159762
     5  H    0.156756
     6  H    0.069322
     7  C   -0.222033
     8  N    0.387673
     9  N   -1.611168
    10  N    0.952475
 Sum of Mulliken charges =  -0.00000

 Dipole moment (field-independent basis, Debye):
    X=              1.4179    Y=              2.0737    Z=              0.8307  Tot=              2.6459

 Test job not archived.
 1\1\GINC-SE135\SP\RHF\Aug-CC-pVDZ\C1H5N3S1\OHZDE\09-Apr-2025\0\\#t hf
 aug-cc-pvdz iop(5/13=1,5/36=2,99/5=2) pseudo=read geom=check guess=(re
 ad,tcheck) scf=(maxcycle=1)\\title\\0,1\H,0,1.21774303,0.78814331,-0.0
 7896573\H,0,1.90622629,2.11329938,-1.32547278\S,0,1.84165876,1.9773473
 1,0.00700442\H,0,-1.86902297,0.43536821,1.14717677\H,0,-2.11986449,0.5
 414817,-0.61259186\H,0,-0.97705863,1.6331311,0.19185848\C,0,-1.3850329
 4,0.62839831,0.18889275\N,0,-0.2482654,-0.28186378,-0.0283513\N,0,-0.5
 1005325,-1.47885691,-0.0547292\N,0,-0.63439382,-2.59966989,-0.09752469

 Normal termination of Gaussian 16 at Wed Apr  9 19:22:45 2025.
