 Gaussian 16, Revision C.01,

 ----------------------------------------------------------------------
 #t hf aug-cc-pvdz symm=none int=(grid=ultrafine) guess=(read,tcheck) s
 table=(opt,rrhf)
 ----------------------------------------------------------------------
 -----
 title
 -----
 Symbolic Z-matrix:
 Charge =  0 Multiplicity = 1

 SCF Done:  E(RHF) =  -914.489061816     A.U. after   12 cycles

 1\1\GINC-SE150\Stability\RHF\Aug-CC-pVDZ\C3H10S2\OHZDE\09-Apr-2025\0\\
 #t hf aug-cc-pvdz symm=none int=(grid=ultrafine) guess=(read,tcheck) s
 table=(opt,rrhf)\\title\\0,1\H,0,2.306559,-2.0578968,-0.64952301\H,0,3
 .32031438,-1.47471252,0.67641305\H,0,2.52307119,-0.31083024,-0.3888258
 5\H,0,0.07002633,-1.01993654,0.36023035\C,0,2.42249764,-1.27751778,0.0
 9684023\S,0,1.02865784,-1.2837739,1.27093846\H,0,0.81196215,1.35344786
 ,0.17183766\H,0,-0.1008466,2.63208894,-0.67148324\H,0,0.91401846,1.512
 45705,-1.59382105\H,0,-2.89374288,0.11164829,0.56407786\H,0,-2.3698089

 Normal termination of Gaussian 16 at Wed Apr  9 04:10:27 2025.
 Gaussian 16:  ES64L-G16RevC.01  3-Jul-2019

 ----------------------------------------------------------------------
 #t hf aug-cc-pvdz iop(5/13=1,5/36=2,99/5=2) pseudo=read geom=check gue
 ss=(read,tcheck) scf=(maxcycle=1)
 ----------------------------------------------------------------------
 -----
 title
 -----
 Structure from the checkpoint file:  "HB300SPXx10_1183_4.23_0.90_methanethiol_dimethylsulfide_dimer_mol1.chk"
 Charge =  0 Multiplicity = 1

                         Standard orientation:
 ---------------------------------------------------------------------
 Center     Atomic      Atomic             Coordinates (Angstroms)
 Number     Number       Type             X           Y           Z
 ---------------------------------------------------------------------
      1          1           0        2.622175    0.947903   -1.283381
      2          1           0        3.467623    0.818979    0.264038
      3          1           0        1.886790    1.607284    0.196993
      4          1           0        0.601022   -0.610221   -0.517723
      5          6           0        2.492201    0.804513   -0.214720
      6         16           0        1.757455   -0.824774    0.141521
      7          1           0       -0.209007    0.925969    1.271937
      8          1           0       -1.879062    1.538095    1.396655
      9          1           0       -0.733661    2.307623    0.287548
     10          1           0       -2.271243   -1.967673   -0.402036
     11          1           0       -2.802184   -0.998197    0.982060
     12          1           0       -1.115245   -1.559735    0.879889
     13          6           0       -1.042803    1.360674    0.723271
     14         16           0       -1.534685    0.275705   -0.640624
     15          6           0       -1.971319   -1.202674    0.309726
 ---------------------------------------------------------------------

 SCF Done:  E(RHF) =  -914.749330681     A.U. after    2 cycles

 The electronic state is 1-A.
 Alpha  occ. eigenvalues --  -93.94765 -93.93345 -11.26574 -11.26473 -11.26280
 Alpha  occ. eigenvalues --   -8.22877  -8.21497  -6.20703  -6.20547  -6.20341
 Alpha  occ. eigenvalues --   -6.19357  -6.19220  -6.18999  -1.09486  -1.05206
 Alpha  occ. eigenvalues --   -0.96434  -0.87861  -0.83353  -0.63418  -0.61690
 Alpha  occ. eigenvalues --   -0.60201  -0.59465  -0.59189  -0.57486  -0.52657
 Alpha  occ. eigenvalues --   -0.51065  -0.46359  -0.45020  -0.35503  -0.34860
 Alpha virt. eigenvalues --    0.03390   0.03722   0.04390   0.04641   0.06064
 Alpha virt. eigenvalues --    0.06587   0.06804   0.07819   0.08939   0.10115
 Alpha virt. eigenvalues --    0.10484   0.12968   0.13371   0.14353   0.14703

 Mulliken charges:
               1
     1  H    0.129891
     2  H    0.144026
     3  H    0.107438
     4  H    0.596531
     5  C   -0.669476
     6  S   -0.245613
     7  H    0.186746
     8  H    0.092818
     9  H    0.183144
    10  H    0.158382
    11  H    0.164302
    12  H    0.078874
    13  C   -0.531130
    14  S    0.161820
    15  C   -0.557752
 Sum of Mulliken charges =  -0.00000

 Dipole moment (field-independent basis, Debye):
    X=             -0.6557    Y=              1.2937    Z=              0.9847  Tot=              1.7531

 Test job not archived.
 1\1\GINC-SE150\SP\RHF\Aug-CC-pVDZ\C3H10S2\OHZDE\09-Apr-2025\0\\#t hf a
 ug-cc-pvdz iop(5/13=1,5/36=2,99/5=2) pseudo=read geom=check guess=(rea
 d,tcheck) scf=(maxcycle=1)\\title\\0,1\H,0,2.306559,-2.0578968,-0.6495
 2301\H,0,3.32031438,-1.47471252,0.67641305\H,0,2.52307119,-0.31083024,
 -0.38882585\H,0,0.07002633,-1.01993654,0.36023035\C,0,2.42249764,-1.27
 751778,0.09684023\S,0,1.02865784,-1.2837739,1.27093846\H,0,0.81196215,
 1.35344786,0.17183766\H,0,-0.1008466,2.63208894,-0.67148324\H,0,0.9140
 1846,1.51245705,-1.59382105\H,0,-2.89374288,0.11164829,0.56407786\H,0,

 Normal termination of Gaussian 16 at Wed Apr  9 04:10:32 2025.
