 Gaussian 16, Revision C.01,

 ----------------------------------------------------------------------
 #t hf aug-cc-pvdz symm=none int=(grid=ultrafine) guess=(read,tcheck) s
 table=(opt,rrhf)
 ----------------------------------------------------------------------
 -----
 title
 -----
 Symbolic Z-matrix:
 Charge =  0 Multiplicity = 1

 SCF Done:  E(RHF) =  -1334.39186282     A.U. after   13 cycles
 Normal termination of Gaussian 16 at Wed Apr  9 19:28:50 2025.
 Gaussian 16:  ES64L-G16RevC.01  3-Jul-2019

 ----------------------------------------------------------------------
 #t hf aug-cc-pvdz iop(5/13=1,5/36=2,99/5=2) pseudo=read geom=check gue
 ss=(read,tcheck) scf=(maxcycle=1)
 ----------------------------------------------------------------------
 -----
 title
 -----
 Structure from the checkpoint file:  "HB300SPXx10_1313_4.36_0.90_hydrogenchloride_dimethyldisulfide_dimer_mol1.chk"
 Charge =  0 Multiplicity = 1

                         Standard orientation:
 ---------------------------------------------------------------------
 Center     Atomic      Atomic             Coordinates (Angstroms)
 Number     Number       Type             X           Y           Z
 ---------------------------------------------------------------------
      1          1           0       -1.637063   -0.192744    0.388199
      2         17           0       -2.794559   -0.557988   -0.093061
      3          1           0        3.524605   -1.185522   -0.537530
      4          1           0        3.237128   -0.222884    0.927626
      5          1           0        3.104786    0.530385   -0.685320
      6          1           0       -0.659795    1.358822   -1.412346
      7          1           0        0.855629    2.211101   -0.999374
      8          1           0       -0.659817    2.639610   -0.179818
      9          6           0        2.940712   -0.373758   -0.105983
     10         16           0        1.202790   -0.905622   -0.200058
     11         16           0        0.210181    0.633061    0.726596
     12          6           0       -0.084964    1.825093   -0.618017
 ---------------------------------------------------------------------

 SCF Done:  E(RHF) =  -1334.68422232     A.U. after    2 cycles

 The electronic state is 1-A.
 Alpha  occ. eigenvalues -- -105.54549 -93.99051 -93.98327 -11.28297 -11.28254
 Alpha  occ. eigenvalues --  -10.59409  -8.27098  -8.26336  -7.76375  -7.76029
 Alpha  occ. eigenvalues --   -7.76027  -6.24888  -6.24680  -6.24505  -6.24142
 Alpha  occ. eigenvalues --   -6.23926  -6.23694  -1.13858  -1.04951  -1.03439
 Alpha  occ. eigenvalues --   -0.93542  -0.82818  -0.64379  -0.62958  -0.61945
 Alpha  occ. eigenvalues --   -0.60208  -0.59558  -0.55650  -0.51757  -0.46444
 Alpha  occ. eigenvalues --   -0.45583  -0.45541  -0.38466  -0.37481
 Alpha virt. eigenvalues --    0.02974   0.03663   0.04587   0.05215   0.06503
 Alpha virt. eigenvalues --    0.07022   0.07917   0.08738   0.09763   0.11934
 Alpha virt. eigenvalues --    0.12981   0.13865   0.13960   0.14436   0.15053

 Mulliken charges:
               1
     1  H    0.480766
     2  Cl  -0.232126
     3  H    0.170540
     4  H    0.228472
     5  H    0.188654
     6  H    0.144665
     7  H    0.149480
     8  H    0.201219
     9  C   -0.745522
    10  S    0.226567
    11  S   -0.262060
    12  C   -0.550655
 Sum of Mulliken charges =  -0.00000

 Dipole moment (field-independent basis, Debye):
    X=              3.8945    Y=              2.2264    Z=             -0.6265  Tot=              4.5295

 Test job not archived.
 1\1\GINC-SE114\SP\RHF\Aug-CC-pVDZ\C2H7Cl1S2\OHZDE\09-Apr-2025\0\\#t hf
  aug-cc-pvdz iop(5/13=1,5/36=2,99/5=2) pseudo=read geom=check guess=(r
 ead,tcheck) scf=(maxcycle=1)\\title\\0,1\H,0,-0.26068265,0.62653872,-1
 .61580209\Cl,0,0.10581098,1.51670262,-2.49790267\H,0,1.8729326,-1.9114
 5441,2.56650325\H,0,0.27459401,-2.53005028,2.09890479\H,0,0.41980744,-
 0.98339408,2.97827448\H,0,-0.52331078,1.96130567,0.56451806\H,0,-1.212
 76077,1.08632038,1.96183575\H,0,-2.22993283,1.46439093,0.55674052\C,0,
 0.8728759,-1.6343735,2.23599343\S,0,1.09450941,-0.76662951,0.65169452\

 Normal termination of Gaussian 16 at Wed Apr  9 19:28:54 2025.
