 Gaussian 16, Revision C.01,

 ----------------------------------------------------------------------
 #t hf aug-cc-pvdz symm=none int=(grid=ultrafine) guess=(read,tcheck) s
 table=(opt,rrhf)
 ----------------------------------------------------------------------
 -----
 title
 -----
 Symbolic Z-matrix:
 Charge =  0 Multiplicity = 1

 SCF Done:  E(RHF) =  -969.534484313     A.U. after   13 cycles
 Normal termination of Gaussian 16 at Wed Apr  9 19:24:13 2025.
 Gaussian 16:  ES64L-G16RevC.01  3-Jul-2019

 ----------------------------------------------------------------------
 #t hf aug-cc-pvdz iop(5/13=1,5/36=2,99/5=2) pseudo=read geom=check gue
 ss=(read,tcheck) scf=(maxcycle=1)
 ----------------------------------------------------------------------
 -----
 title
 -----
 Structure from the checkpoint file:  "HB300SPXx10_1066_4.10_1.05_methylamine_dimethyldisulfide_dimer_mol1.chk"
 Charge =  0 Multiplicity = 1

                         Standard orientation:
 ---------------------------------------------------------------------
 Center     Atomic      Atomic             Coordinates (Angstroms)
 Number     Number       Type             X           Y           Z
 ---------------------------------------------------------------------
      1          7           0        2.364796    0.900081   -0.000718
      2          1           0        2.603942    1.836635   -0.298160
      3          1           0        1.636658    0.568517   -0.622149
      4          6           0        3.534354    0.023623   -0.061365
      5          1           0        3.252273   -0.974022    0.273504
      6          1           0        3.987375   -0.072729   -1.054509
      7          1           0        4.298387    0.390219    0.623143
      8          1           0       -1.713827    2.632715    0.648935
      9          1           0       -0.734467    2.204573   -0.768782
     10          1           0       -0.207200    1.712285    0.862234
     11          1           0       -0.692812   -2.029479    1.558314
     12          1           0        0.654674   -0.876202    1.311885
     13          1           0        0.692063   -2.476007    0.539282
     14          6           0       -1.062464    1.875865    0.213640
     15         16           0       -2.074601    0.367931    0.075429
     16         16           0       -0.766547   -1.035183   -0.646509
     17          6           0        0.049400   -1.656328    0.859160
 ---------------------------------------------------------------------

 SCF Done:  E(RHF) =  -969.854663566     A.U. after    2 cycles

 The electronic state is 1-A.
 Alpha  occ. eigenvalues --  -93.96677 -93.96507 -15.48426 -11.26455 -11.26436
 Alpha  occ. eigenvalues --  -11.25475  -8.24666  -8.24506  -6.22480  -6.22317
 Alpha  occ. eigenvalues --   -6.22264  -6.22102  -6.22046  -6.21878  -1.17401
 Alpha  occ. eigenvalues --   -1.11544  -1.02358  -0.91650  -0.90968  -0.80657
 Alpha  occ. eigenvalues --   -0.69817  -0.63329  -0.61685  -0.60455  -0.60188
 Alpha  occ. eigenvalues --   -0.58530  -0.58103  -0.54029  -0.53402  -0.49753
 Alpha  occ. eigenvalues --   -0.44687  -0.43022  -0.36496  -0.35468
 Alpha virt. eigenvalues --    0.03354   0.03929   0.04334   0.04905   0.05617
 Alpha virt. eigenvalues --    0.05990   0.06615   0.07258   0.07874   0.09217
 Alpha virt. eigenvalues --    0.09619   0.10309   0.11422   0.12920   0.14191

 Mulliken charges:
               1
     1  N    0.066895
     2  H    0.142266
     3  H    0.032940
     4  C   -0.445788
     5  H    0.039098
     6  H    0.101793
     7  H    0.077002
     8  H    0.134135
     9  H    0.199004
    10  H    0.233886
    11  H    0.140004
    12  H    0.207148
    13  H    0.204754
    14  C   -0.661353
    15  S    0.113438
    16  S    0.044599
    17  C   -0.629823
 Sum of Mulliken charges =   0.00000

 Dipole moment (field-independent basis, Debye):
    X=              2.1700    Y=              0.8180    Z=              0.3061  Tot=              2.3392

 Test job not archived.
 1\1\GINC-SE112\SP\RHF\Aug-CC-pVDZ\C3H11N1S2\OHZDE\09-Apr-2025\0\\#t hf
  aug-cc-pvdz iop(5/13=1,5/36=2,99/5=2) pseudo=read geom=check guess=(r
 ead,tcheck) scf=(maxcycle=1)\\title\\0,1\N,0,-0.790217,0.77789413,2.28
 472778\H,0,-1.73224372,0.61681804,2.6155392\H,0,-0.85550262,0.99181266
 ,1.29666237\C,0,-0.16836631,1.8838218,3.01270443\H,0,0.84688345,2.0289
 6517,2.64500493\H,0,-0.69345824,2.84224623,2.93178871\H,0,-0.0959132,1
 .62767695,4.06903376\H,0,-1.6315283,-2.68707298,-0.42551748\H,0,-2.160
 71003,-0.99455098,-0.33772126\H,0,-0.82792688,-1.56820235,0.69919011\H

 Normal termination of Gaussian 16 at Wed Apr  9 19:24:20 2025.
