 Gaussian 16, Revision C.01,

 ----------------------------------------------------------------------
 #t hf aug-cc-pvdz symm=none int=(grid=ultrafine) guess=(read,tcheck) s
 table=(opt,rrhf)
 ----------------------------------------------------------------------
 -----
 title
 -----
 Symbolic Z-matrix:
 Charge =  0 Multiplicity = 1

 SCF Done:  E(RHF) =  -991.414149193     A.U. after   12 cycles

 1\1\GINC-SE045\Stability\RHF\Aug-CC-pVDZ\C5H12S2\OHZDE\09-Apr-2025\0\\
 #t hf aug-cc-pvdz symm=none int=(grid=ultrafine) guess=(read,tcheck) s
 table=(opt,rrhf)\\title\\0,1\H,0,2.75511322,-2.75302781,-0.03281769\H,
 0,2.23328443,-3.6609344,1.39160682\H,0,2.88304587,-2.02859561,1.588775
 53\H,0,0.87227038,-0.86572365,0.25189781\C,0,2.28978938,-2.67174858,0.
 94522466\S,0,0.57786237,-2.06107277,0.80693494\H,0,-0.74535584,0.17830
 363,-1.95284909\H,0,-0.84026908,1.64882529,-2.93220418\H,0,-2.9828624,
 0.98287058,-1.47158501\H,0,-0.69638372,3.35166908,0.66121902\H,0,-2.44

 Normal termination of Gaussian 16 at Wed Apr  9 19:29:33 2025.
 Gaussian 16:  ES64L-G16RevC.01  3-Jul-2019

 ----------------------------------------------------------------------
 #t hf aug-cc-pvdz iop(5/13=1,5/36=2,99/5=2) pseudo=read geom=check gue
 ss=(read,tcheck) scf=(maxcycle=1)
 ----------------------------------------------------------------------
 -----
 title
 -----
 Structure from the checkpoint file:  "HB300SPXx10_1208_4.25_1.25_methanethiol_tetrahydrothiophene_dimer_mol1.chk"
 Charge =  0 Multiplicity = 1

                         Standard orientation:
 ---------------------------------------------------------------------
 Center     Atomic      Atomic             Coordinates (Angstroms)
 Number     Number       Type             X           Y           Z
 ---------------------------------------------------------------------
      1          1           0        3.935766    1.237969   -0.829262
      2          1           0        4.887594   -0.013741   -0.021283
      3          1           0        3.917725    1.103780    0.946238
      4          1           0        1.584802    0.222617   -0.035471
      5          6           0        3.959976    0.551376    0.011989
      6         16           0        2.603616   -0.661803   -0.093972
      7          1           0       -0.740597   -0.084095   -1.786488
      8          1           0       -2.304859    0.701520   -2.044311
      9          1           0       -2.307885   -1.879074   -1.331475
     10          1           0       -2.491041    0.319616    1.912020
     11          1           0       -3.416857   -0.787266   -0.504039
     12          1           0       -0.738589    0.136795    2.070184
     13          1           0       -2.187055   -1.987326    1.269700
     14          1           0       -0.655235   -1.640753    0.479203
     15         16           0       -1.328442    1.362880    0.065000
     16          6           0       -1.679340    0.197784   -1.312458
     17          6           0       -2.362686   -1.009660   -0.676099
     18          6           0       -1.659498   -1.255644    0.657828
     19          6           0       -1.572877    0.091596    1.375161
 ---------------------------------------------------------------------

 SCF Done:  E(RHF) =  -991.754207978     A.U. after    2 cycles

 The electronic state is 1-A.
 Alpha  occ. eigenvalues --  -93.94433 -93.93161 -11.26578 -11.26196 -11.26181
 Alpha  occ. eigenvalues --  -11.24077 -11.24037  -8.22509  -8.21281  -6.20370
 Alpha  occ. eigenvalues --   -6.20228  -6.19999  -6.19086  -6.18966  -6.18738
 Alpha  occ. eigenvalues --   -1.13851  -1.05675  -0.99066  -0.98444  -0.88169
 Alpha  occ. eigenvalues --   -0.80054  -0.79675  -0.66673  -0.65124  -0.61271
 Alpha  occ. eigenvalues --   -0.60814  -0.59620  -0.55766  -0.53249  -0.51554
 Alpha  occ. eigenvalues --   -0.50332  -0.48821  -0.48709  -0.46387  -0.43117
 Alpha  occ. eigenvalues --   -0.36043  -0.34058
 Alpha virt. eigenvalues --    0.03395   0.03717   0.03909   0.04293   0.05178
 Alpha virt. eigenvalues --    0.05704   0.06052   0.06606   0.07888   0.08182
 Alpha virt. eigenvalues --    0.08362   0.09200   0.11394   0.13145   0.13269

 Mulliken charges:
               1
     1  H    0.154695
     2  H    0.147166
     3  H    0.151418
     4  H    0.337516
     5  C   -0.762106
     6  S   -0.063542
     7  H    0.135043
     8  H    0.161756
     9  H    0.137925
    10  H    0.153691
    11  H    0.103673
    12  H    0.136484
    13  H    0.152000
    14  H    0.082845
    15  S    0.424489
    16  C   -0.448842
    17  C   -0.286145
    18  C   -0.257433
    19  C   -0.460634
 Sum of Mulliken charges =  -0.00000

 Dipole moment (field-independent basis, Debye):
    X=             -0.2043    Y=             -0.5551    Z=              0.0727  Tot=              0.5960

 Test job not archived.
 1\1\GINC-SE045\SP\RHF\Aug-CC-pVDZ\C5H12S2\OHZDE\09-Apr-2025\0\\#t hf a
 ug-cc-pvdz iop(5/13=1,5/36=2,99/5=2) pseudo=read geom=check guess=(rea
 d,tcheck) scf=(maxcycle=1)\\title\\0,1\H,0,2.75511322,-2.75302781,-0.0
 3281769\H,0,2.23328443,-3.6609344,1.39160682\H,0,2.88304587,-2.0285956
 1,1.58877553\H,0,0.87227038,-0.86572365,0.25189781\C,0,2.28978938,-2.6
 7174858,0.94522466\S,0,0.57786237,-2.06107277,0.80693494\H,0,-0.745355
 84,0.17830363,-1.95284909\H,0,-0.84026908,1.64882529,-2.93220418\H,0,-
 2.9828624,0.98287058,-1.47158501\H,0,-0.69638372,3.35166908,0.66121902

 Normal termination of Gaussian 16 at Wed Apr  9 19:29:40 2025.
