 Gaussian 16, Revision C.01,

 ----------------------------------------------------------------------
 #t hf aug-cc-pvdz symm=none int=(grid=ultrafine) guess=(read,tcheck) s
 table=(opt,rrhf)
 ----------------------------------------------------------------------
 -----
 title
 -----
 Symbolic Z-matrix:
 Charge =  0 Multiplicity = 1

 SCF Done:  E(RHF) =  -747.046001864     A.U. after   14 cycles
 Normal termination of Gaussian 16 at Wed Apr  9 19:33:36 2025.
 Gaussian 16:  ES64L-G16RevC.01  3-Jul-2019

 ----------------------------------------------------------------------
 #t hf aug-cc-pvdz iop(5/13=1,5/36=2,99/5=2) pseudo=read geom=check gue
 ss=(read,tcheck) scf=(maxcycle=1)
 ----------------------------------------------------------------------
 -----
 title
 -----
 Structure from the checkpoint file:  "HB300SPXx10_1454_5.08_0.95_methylcyanate_phosphineF2_dimer_mol1.chk"
 Charge =  0 Multiplicity = 1

                         Standard orientation:
 ---------------------------------------------------------------------
 Center     Atomic      Atomic             Coordinates (Angstroms)
 Number     Number       Type             X           Y           Z
 ---------------------------------------------------------------------
      1          1           0       -2.734148   -1.062724    1.320534
      2          1           0       -3.322352   -1.785381   -0.204680
      3          1           0       -1.563106   -1.665092    0.106584
      4          6           0       -2.534696   -1.207520    0.262265
      5          8           0       -2.569493    0.090237   -0.413212
      6          6           0       -1.682019    0.931932   -0.040869
      7          7           0       -0.886977    1.710792    0.268788
      8         15           0        1.648349    0.339482   -0.160957
      9          9           0        0.684927   -0.951573   -0.084993
     10          9           0        3.037256   -0.421552    0.095465
     11          1           0        1.459789    0.735177    1.193463
 ---------------------------------------------------------------------

 SCF Done:  E(RHF) =  -747.472545332     A.U. after    2 cycles

 The electronic state is 1-A.
 Alpha  occ. eigenvalues --  -84.40141 -26.48001 -26.47048 -20.65363 -15.51878
 Alpha  occ. eigenvalues --  -11.35818 -11.34145  -6.85778  -4.38585  -4.37969
 Alpha  occ. eigenvalues --   -4.36862  -1.61728  -1.58382  -1.57183  -1.24759
 Alpha  occ. eigenvalues --   -1.01997  -0.87807  -0.80986  -0.72162  -0.70864
 Alpha  occ. eigenvalues --   -0.70654  -0.70021  -0.68612  -0.64386  -0.63093
 Alpha  occ. eigenvalues --   -0.61575  -0.59754  -0.59322  -0.56669  -0.50164
 Alpha  occ. eigenvalues --   -0.47675  -0.37512
 Alpha virt. eigenvalues --    0.02814   0.04503   0.05436   0.05686   0.07215
 Alpha virt. eigenvalues --    0.09276   0.09516   0.10385   0.11330   0.11821
 Alpha virt. eigenvalues --    0.13406   0.14257   0.14930   0.15456   0.15924

 Mulliken charges:
               1
     1  H    0.152114
     2  H    0.046961
     3  H    0.165778
     4  C    0.380898
     5  O   -1.038994
     6  C   -0.542733
     7  N    0.852257
     8  P    1.455528
     9  F   -0.848907
    10  F   -0.754577
    11  H    0.131675
 Sum of Mulliken charges =  -0.00000

 Dipole moment (field-independent basis, Debye):
    X=             -3.4091    Y=             -2.9527    Z=              0.4353  Tot=              4.5310

 Test job not archived.
 1\1\GINC-SE226\SP\RHF\Aug-CC-pVDZ\C2H4F2N1O1P1\OHZDE\09-Apr-2025\0\\#t
  hf aug-cc-pvdz iop(5/13=1,5/36=2,99/5=2) pseudo=read geom=check guess
 =(read,tcheck) scf=(maxcycle=1)\\title\\0,1\H,0,-2.89287834,1.38344137
 ,-2.41875402\H,0,-2.88368966,0.15494314,-3.71690786\H,0,-2.33807438,-0
 .28314113,-2.0686702\C,0,-2.39546429,0.50243917,-2.8151059\O,0,-1.0419
 8507,0.86597867,-3.23651367\C,0,-0.26338211,1.27221362,-2.30729377\N,0
 ,0.4658792,1.6354549,-1.48824768\P,0,0.48837486,-0.53984982,0.45097735
 \F,0,-0.89922739,-0.89209147,-0.29149206\F,0,0.24111472,-1.40773338,1.

 Normal termination of Gaussian 16 at Wed Apr  9 19:33:41 2025.
