 Gaussian 16, Revision C.01,

 ----------------------------------------------------------------------
 #t hf aug-cc-pvdz symm=none int=(grid=ultrafine) guess=(read,tcheck) s
 table=(opt,rrhf)
 ----------------------------------------------------------------------
 -----
 title
 -----
 Symbolic Z-matrix:
 Charge =  0 Multiplicity = 1

 SCF Done:  E(RHF) =  -875.444656447     A.U. after   12 cycles
 Normal termination of Gaussian 16 at Wed Apr  9 04:10:28 2025.
 Gaussian 16:  ES64L-G16RevC.01  3-Jul-2019

 ----------------------------------------------------------------------
 #t hf aug-cc-pvdz iop(5/13=1,5/36=2,99/5=2) pseudo=read geom=check gue
 ss=(read,tcheck) scf=(maxcycle=1)
 ----------------------------------------------------------------------
 -----
 title
 -----
 Structure from the checkpoint file:  "HB300SPXx10_1191_4.24_0.80_methanethiol_methanethiol_dimer_mol1.chk"
 Charge =  0 Multiplicity = 1

                         Standard orientation:
 ---------------------------------------------------------------------
 Center     Atomic      Atomic             Coordinates (Angstroms)
 Number     Number       Type             X           Y           Z
 ---------------------------------------------------------------------
      1          1           0       -0.848886    0.920540    1.381592
      2          1           0       -2.603558    0.861214    1.188411
      3          1           0       -1.637032    1.822067    0.063214
      4          1           0       -0.389828   -0.283418   -0.967488
      5          6           0       -1.657809    0.911913    0.655519
      6         16           0       -1.579535   -0.565237   -0.407157
      7          1           0        1.959210   -0.463322    1.764779
      8          1           0        2.035696   -1.688261    0.493708
      9          1           0        0.458707   -1.086754    1.014670
     10          1           0        1.006120    1.430407    0.159132
     11          6           0        1.496690   -0.813167    0.846928
     12         16           0        1.641178    0.433677   -0.474887
 ---------------------------------------------------------------------

 SCF Done:  E(RHF) =  -875.661169965     A.U. after    2 cycles

 The electronic state is 1-A.
 Alpha  occ. eigenvalues --  -93.95860 -93.93337 -11.27025 -11.26821  -8.23997
 Alpha  occ. eigenvalues --   -8.21542  -6.21844  -6.21697  -6.21492  -6.19396
 Alpha  occ. eigenvalues --   -6.19261  -6.19039  -1.08074  -1.05099  -0.89442
 Alpha  occ. eigenvalues --   -0.88399  -0.63830  -0.62080  -0.60725  -0.58548
 Alpha  occ. eigenvalues --   -0.54636  -0.53235  -0.47753  -0.46836  -0.36681
 Alpha  occ. eigenvalues --   -0.35568
 Alpha virt. eigenvalues --    0.03268   0.03760   0.04525   0.04894   0.07073
 Alpha virt. eigenvalues --    0.07323   0.07513   0.08737   0.10492   0.12674
 Alpha virt. eigenvalues --    0.13130   0.13421   0.14746   0.14928   0.15384

 Mulliken charges:
               1
     1  H    0.143321
     2  H    0.092653
     3  H    0.146329
     4  H    0.556889
     5  C   -0.642237
     6  S   -0.231113
     7  H    0.141576
     8  H    0.144824
     9  H    0.155249
    10  H    0.376065
    11  C   -0.580288
    12  S   -0.303266
 Sum of Mulliken charges =   0.00000

 Dipole moment (field-independent basis, Debye):
    X=              0.6228    Y=              0.9102    Z=              1.9735  Tot=              2.2608

 Test job not archived.
 1\1\GINC-SE029\SP\RHF\Aug-CC-pVDZ\C2H8S2\OHZDE\09-Apr-2025\0\\#t hf au
 g-cc-pvdz iop(5/13=1,5/36=2,99/5=2) pseudo=read geom=check guess=(read
 ,tcheck) scf=(maxcycle=1)\\title\\0,1\H,0,1.48841111,-0.83932977,-0.94
 699875\H,0,2.60301323,-1.84400864,-0.01533608\H,0,2.55978836,-0.100175
 65,0.26866848\H,0,0.07877426,-0.11956038,1.21477831\C,0,1.95766928,-0.
 9705586,0.02469451\S,0,0.71991769,-1.29709475,1.32035013\H,0,-1.377691
 29,-0.17833774,-2.08535597\H,0,-2.44759054,-0.24600009,-0.68083224\H,0
 ,-0.89993182,-1.09553869,-0.62476327\H,0,0.50865787,1.21547032,-0.8316

 Normal termination of Gaussian 16 at Wed Apr  9 04:10:31 2025.
