 Gaussian 16, Revision C.01,

 ----------------------------------------------------------------------
 #t hf aug-cc-pvdz symm=none int=(grid=ultrafine) guess=(read,tcheck) s
 table=(opt,rrhf)
 ----------------------------------------------------------------------
 -----
 title
 -----
 Symbolic Z-matrix:
 Charge =  0 Multiplicity = 1

 SCF Done:  E(RHF) =  -855.901460011     A.U. after   14 cycles
 Normal termination of Gaussian 16 at Wed Apr  9 19:22:45 2025.
 Gaussian 16:  ES64L-G16RevC.01  3-Jul-2019

 ----------------------------------------------------------------------
 #t hf aug-cc-pvdz iop(5/13=1,5/36=2,99/5=2) pseudo=read geom=check gue
 ss=(read,tcheck) scf=(maxcycle=1)
 ----------------------------------------------------------------------
 -----
 title
 -----
 Structure from the checkpoint file:  "HB300SPXx10_1032_4.07_0.85_phosphaalkyne_methanethiol_dimer_mol1.chk"
 Charge =  0 Multiplicity = 1

                         Standard orientation:
 ---------------------------------------------------------------------
 Center     Atomic      Atomic             Coordinates (Angstroms)
 Number     Number       Type             X           Y           Z
 ---------------------------------------------------------------------
      1          1           0       -1.001534    2.135653    1.294419
      2          1           0       -1.274623    2.530703   -0.404911
      3          1           0        0.242984    1.770168    0.087633
      4         15           0       -2.011558   -0.919976   -0.170163
      5          6           0       -1.413026    0.480945    0.057860
      6          6           0       -0.833898    1.795558    0.270857
      7          1           0        0.787503   -0.197260    1.542103
      8          1           0        2.523000   -0.548458    1.612350
      9          1           0        1.407971   -1.758062    0.961171
     10          1           0        0.692050   -0.204161   -1.105043
     11          6           0        1.611307   -0.694171    1.039032
     12         16           0        1.913108    0.036066   -0.602611
 ---------------------------------------------------------------------

 SCF Done:  E(RHF) =  -856.129130649     A.U. after    2 cycles

 The electronic state is 1-A.
 Alpha  occ. eigenvalues --  -93.94341 -84.26444 -11.29223 -11.26586 -11.26023
 Alpha  occ. eigenvalues --   -8.22478  -6.74101  -6.20335  -6.20193  -6.19971
 Alpha  occ. eigenvalues --   -4.27054  -4.25496  -4.25340  -1.06900  -1.05006
 Alpha  occ. eigenvalues --   -0.92051  -0.88433  -0.67041  -0.62887  -0.60851
 Alpha  occ. eigenvalues --   -0.60468  -0.58294  -0.53395  -0.46806  -0.46568
 Alpha  occ. eigenvalues --   -0.36720  -0.35753  -0.35169
 Alpha virt. eigenvalues --    0.03417   0.03856   0.04790   0.05101   0.06289
 Alpha virt. eigenvalues --    0.06748   0.07130   0.07715   0.07869   0.09049
 Alpha virt. eigenvalues --    0.11298   0.12674   0.13073   0.14435   0.14759

 Mulliken charges:
               1
     1  H    0.254062
     2  H    0.171440
     3  H    0.146775
     4  P    0.786384
     5  C   -0.853136
     6  C   -0.509980
     7  H    0.173182
     8  H    0.147428
     9  H    0.152427
    10  H    0.427316
    11  C   -0.653083
    12  S   -0.242813
 Sum of Mulliken charges =  -0.00000

 Dipole moment (field-independent basis, Debye):
    X=             -1.0249    Y=             -0.4275    Z=              1.1625  Tot=              1.6077

 Test job not archived.
 1\1\GINC-SE231\SP\RHF\Aug-CC-pVDZ\C3H7P1S1\OHZDE\09-Apr-2025\0\\#t hf
 aug-cc-pvdz iop(5/13=1,5/36=2,99/5=2) pseudo=read geom=check guess=(re
 ad,tcheck) scf=(maxcycle=1)\\title\\0,1\H,0,0.38933231,2.34404549,-1.6
 8180664\H,0,-1.19987448,1.75919838,-2.18254684\H,0,0.10218747,0.605834
 91,-1.86864837\P,0,-1.17058474,1.34195856,1.32892267\C,0,-0.7484701,1.
 45533882,-0.14816129\C,0,-0.34350289,1.5476729,-1.53972175\H,0,1.74880
 208,0.33896887,0.00223318\H,0,2.7922282,-1.08043716,-0.18953256\H,0,1.
 71964529,-0.96206551,1.21261537\H,0,-0.50049771,-1.02880475,-0.2916789

 Normal termination of Gaussian 16 at Wed Apr  9 19:22:49 2025.
