 Gaussian 16, Revision C.01,

 ----------------------------------------------------------------------
 #t hf aug-cc-pvdz symm=none int=(grid=ultrafine) guess=(read,tcheck) s
 table=(opt,rrhf)
 ----------------------------------------------------------------------
 -----
 title
 -----
 Symbolic Z-matrix:
 Charge =  0 Multiplicity = 1

 SCF Done:  E(RHF) =  -3015.75999763     A.U. after   14 cycles
 Normal termination of Gaussian 16 at Wed Apr  9 19:30:06 2025.
 Gaussian 16:  ES64L-G16RevC.01  3-Jul-2019

 ----------------------------------------------------------------------
 #t hf aug-cc-pvdz iop(5/13=1,5/36=2,99/5=2) pseudo=read geom=check gue
 ss=(read,tcheck) scf=(maxcycle=1)
 ----------------------------------------------------------------------
 -----
 title
 -----
 Structure from the checkpoint file:  "HB300SPXx10_1343_4.39_0.90_hydrogenchloride_P4S3_dimer_mol1.chk"
 Charge =  0 Multiplicity = 1

                         Standard orientation:
 ---------------------------------------------------------------------
 Center     Atomic      Atomic             Coordinates (Angstroms)
 Number     Number       Type             X           Y           Z
 ---------------------------------------------------------------------
      1          1           0       -2.457656   -0.486634   -0.529296
      2         17           0       -3.517583    0.007549    0.016896
      3         16           0       -0.475899   -0.715185   -1.532000
      4         15           0       -0.191551    1.326521   -1.059167
      5         16           0       -0.203522   -0.724402    1.690619
      6         16           0        2.447842   -0.672478   -0.169821
      7         15           0        1.846620    1.348815   -0.103010
      8         15           0       -0.002811    1.312658    1.183661
      9         15           0        0.611863   -1.711238    0.006603
 ---------------------------------------------------------------------

 SCF Done:  E(RHF) =  -3016.19535424     A.U. after    2 cycles

 The electronic state is 1-A.
 Alpha  occ. eigenvalues -- -105.56428 -94.00027 -93.99436 -93.99365 -84.38159
 Alpha  occ. eigenvalues --  -84.34301 -84.34223 -84.34176 -10.61255  -8.28311
 Alpha  occ. eigenvalues --   -8.27752  -8.27675  -7.78239  -7.77869  -7.77863
 Alpha  occ. eigenvalues --   -6.84743  -6.81277  -6.81178  -6.81138  -6.26047
 Alpha  occ. eigenvalues --   -6.25875  -6.25682  -6.25496  -6.25419  -6.25319
 Alpha  occ. eigenvalues --   -6.25242  -6.25091  -6.25013  -4.36504  -4.36482
 Alpha  occ. eigenvalues --   -4.36156  -4.33543  -4.33152  -4.33060  -4.32713
 Alpha  occ. eigenvalues --   -4.32662  -4.32595  -4.32572  -4.32455  -4.32400
 Alpha  occ. eigenvalues --   -1.15270  -1.06279  -1.03996  -1.03748  -0.98125
 Alpha  occ. eigenvalues --   -0.76855  -0.73300  -0.73192  -0.63044  -0.55996
 Alpha  occ. eigenvalues --   -0.55457  -0.54797  -0.47508  -0.47305  -0.45243
 Alpha  occ. eigenvalues --   -0.44069  -0.43971  -0.43330  -0.42960  -0.39994
 Alpha  occ. eigenvalues --   -0.36542  -0.33279  -0.33147
 Alpha virt. eigenvalues --    0.03207   0.05253   0.05296   0.05416   0.05964
 Alpha virt. eigenvalues --    0.06247   0.06435   0.07600   0.08533   0.08913
 Alpha virt. eigenvalues --    0.10124   0.10281   0.10831   0.10934   0.11197

 Mulliken charges:
               1
     1  H    0.342992
     2  Cl  -0.197822
     3  S   -0.807147
     4  P    0.366224
     5  S   -0.584638
     6  S   -0.563718
     7  P    0.381947
     8  P    0.390606
     9  P    0.671556
 Sum of Mulliken charges =  -0.00000

 Dipole moment (field-independent basis, Debye):
    X=              1.8828    Y=              1.0298    Z=             -0.2631  Tot=              2.1621

 Test job not archived.
 1\1\GINC-SE035\SP\RHF\Aug-CC-pVDZ\Cl1H1P4S3\OHZDE\09-Apr-2025\0\\#t hf
  aug-cc-pvdz iop(5/13=1,5/36=2,99/5=2) pseudo=read geom=check guess=(r
 ead,tcheck) scf=(maxcycle=1)\\title\\0,1\H,0,-0.57388532,0.23171594,-0
 .00983813\Cl,0,-1.31085335,0.72448843,-0.94794305\S,0,0.75550166,0.003
 89392,1.76944229\P,0,0.24847977,2.0129003,2.19348289\S,0,-2.3724995,-0
 .16750026,2.57304595\S,0,-0.09840346,-0.09006843,4.87872468\P,0,-0.352
 92895,1.93961481,4.36184846\P,0,-1.9283115,1.88619896,2.75171189\P,0,-
 0.53435904,-1.09134535,3.06534293\\Version=ES64L-G16RevC.01\State=1-A\

 Normal termination of Gaussian 16 at Wed Apr  9 19:30:12 2025.
