 Gaussian 16, Revision C.01,

 ----------------------------------------------------------------------
 #t hf aug-cc-pvdz symm=none int=(grid=ultrafine) guess=(read,tcheck) s
 table=(opt,rrhf)
 ----------------------------------------------------------------------
 -----
 title
 -----
 Symbolic Z-matrix:
 Charge =  0 Multiplicity = 1

 SCF Done:  E(RHF) =  -991.409487443     A.U. after   12 cycles

 1\1\GINC-SE220\Stability\RHF\Aug-CC-pVDZ\C5H12S2\OHZDE\09-Apr-2025\0\\
 #t hf aug-cc-pvdz symm=none int=(grid=ultrafine) guess=(read,tcheck) s
 table=(opt,rrhf)\\title\\0,1\H,0,2.75511322,-2.75302781,-0.03281769\H,
 0,2.23328443,-3.6609344,1.39160682\H,0,2.88304587,-2.02859561,1.588775
 53\H,0,0.87227038,-0.86572365,0.25189781\C,0,2.28978938,-2.67174858,0.
 94522466\S,0,0.57786237,-2.06107277,0.80693494\H,0,-0.6554573,-0.50941
 007,-1.66424575\H,0,-0.75037053,0.96111159,-2.64360084\H,0,-2.89296385
 ,0.29515687,-1.18298167\H,0,-0.60648518,2.66395538,0.94982236\H,0,-2.3

 Normal termination of Gaussian 16 at Wed Apr  9 04:11:21 2025.
 Gaussian 16:  ES64L-G16RevC.01  3-Jul-2019

 ----------------------------------------------------------------------
 #t hf aug-cc-pvdz iop(5/13=1,5/36=2,99/5=2) pseudo=read geom=check gue
 ss=(read,tcheck) scf=(maxcycle=1)
 ----------------------------------------------------------------------
 -----
 title
 -----
 Structure from the checkpoint file:  "HB300SPXx10_1204_4.25_0.95_methanethiol_tetrahydrothiophene_dimer_mol1.chk"
 Charge =  0 Multiplicity = 1

                         Standard orientation:
 ---------------------------------------------------------------------
 Center     Atomic      Atomic             Coordinates (Angstroms)
 Number     Number       Type             X           Y           Z
 ---------------------------------------------------------------------
      1          1           0        3.589777    1.117284   -0.810412
      2          1           0        4.429971   -0.244486   -0.058586
      3          1           0        3.577153    0.922467    0.959509
      4          1           0        1.163142    0.294876   -0.021006
      5          6           0        3.558881    0.401985    0.006346
      6         16           0        2.095297   -0.676833   -0.123331
      7          1           0       -0.527369   -0.070237   -1.793401
      8          1           0       -2.014897    0.864509   -2.003376
      9          1           0       -2.249093   -1.728518   -1.379698
     10          1           0       -2.196033    0.361333    1.939602
     11          1           0       -3.244187   -0.569398   -0.500639
     12          1           0       -0.466459    0.012679    2.068223
     13          1           0       -2.112806   -1.939560    1.214395
     14          1           0       -0.563499   -1.707484    0.416112
     15         16           0       -0.960565    1.358109    0.114341
     16          6           0       -1.431291    0.279773   -1.297600
     17          6           0       -2.216828   -0.881529   -0.694154
     18          6           0       -1.526074   -1.238251    0.621121
     19          6           0       -1.308255    0.069040    1.383139
 ---------------------------------------------------------------------

 SCF Done:  E(RHF) =  -991.750477084     A.U. after    2 cycles

 The electronic state is 1-A.
 Alpha  occ. eigenvalues --  -93.93568 -93.93342 -11.26372 -11.26331 -11.26070
 Alpha  occ. eigenvalues --  -11.24153 -11.24023  -8.21698  -8.21479  -6.19497
 Alpha  occ. eigenvalues --   -6.19380  -6.19343  -6.19201  -6.19166  -6.18983
 Alpha  occ. eigenvalues --   -1.14129  -1.05081  -0.99220  -0.98754  -0.87717
 Alpha  occ. eigenvalues --   -0.80151  -0.79919  -0.66945  -0.65287  -0.61002
 Alpha  occ. eigenvalues --   -0.60821  -0.59121  -0.56202  -0.52602  -0.51672
 Alpha  occ. eigenvalues --   -0.50416  -0.48979  -0.48852  -0.45856  -0.43436
 Alpha  occ. eigenvalues --   -0.35409  -0.34209
 Alpha virt. eigenvalues --    0.03408   0.03717   0.03862   0.04183   0.05408
 Alpha virt. eigenvalues --    0.05775   0.06099   0.06587   0.07932   0.08379
 Alpha virt. eigenvalues --    0.08667   0.09581   0.12011   0.12883   0.13554

 Mulliken charges:
               1
     1  H    0.138345
     2  H    0.137685
     3  H    0.133500
     4  H    0.591768
     5  C   -0.827214
     6  S   -0.148047
     7  H    0.108173
     8  H    0.143342
     9  H    0.127861
    10  H    0.112748
    11  H    0.104009
    12  H    0.127241
    13  H    0.149872
    14  H    0.114305
    15  S    0.256647
    16  C   -0.349395
    17  C   -0.312697
    18  C   -0.202567
    19  C   -0.405576
 Sum of Mulliken charges =  -0.00000

 Dipole moment (field-independent basis, Debye):
    X=             -0.6130    Y=             -0.3991    Z=              0.0791  Tot=              0.7357

 Test job not archived.
 1\1\GINC-SE220\SP\RHF\Aug-CC-pVDZ\C5H12S2\OHZDE\09-Apr-2025\0\\#t hf a
 ug-cc-pvdz iop(5/13=1,5/36=2,99/5=2) pseudo=read geom=check guess=(rea
 d,tcheck) scf=(maxcycle=1)\\title\\0,1\H,0,2.75511322,-2.75302781,-0.0
 3281769\H,0,2.23328443,-3.6609344,1.39160682\H,0,2.88304587,-2.0285956
 1,1.58877553\H,0,0.87227038,-0.86572365,0.25189781\C,0,2.28978938,-2.6
 7174858,0.94522466\S,0,0.57786237,-2.06107277,0.80693494\H,0,-0.655457
 3,-0.50941007,-1.66424575\H,0,-0.75037053,0.96111159,-2.64360084\H,0,-
 2.89296385,0.29515687,-1.18298167\H,0,-0.60648518,2.66395538,0.9498223

 Normal termination of Gaussian 16 at Wed Apr  9 04:11:30 2025.
