 Gaussian 16, Revision C.01,

 ----------------------------------------------------------------------
 #t hf aug-cc-pvdz symm=none int=(grid=ultrafine) guess=(read,tcheck) s
 table=(opt,rrhf)
 ----------------------------------------------------------------------
 -----
 title
 -----
 Symbolic Z-matrix:
 Charge =  0 Multiplicity = 1

 SCF Done:  E(RHF) =  -969.518484447     A.U. after   13 cycles
 Normal termination of Gaussian 16 at Wed Apr  9 19:24:15 2025.
 Gaussian 16:  ES64L-G16RevC.01  3-Jul-2019

 ----------------------------------------------------------------------
 #t hf aug-cc-pvdz iop(5/13=1,5/36=2,99/5=2) pseudo=read geom=check gue
 ss=(read,tcheck) scf=(maxcycle=1)
 ----------------------------------------------------------------------
 -----
 title
 -----
 Structure from the checkpoint file:  "HB300SPXx10_1061_4.10_0.80_methylamine_dimethyldisulfide_dimer_mol1.chk"
 Charge =  0 Multiplicity = 1

                         Standard orientation:
 ---------------------------------------------------------------------
 Center     Atomic      Atomic             Coordinates (Angstroms)
 Number     Number       Type             X           Y           Z
 ---------------------------------------------------------------------
      1          7           0        1.794201    0.971323   -0.018834
      2          1           0        1.853523    1.933112   -0.325816
      3          1           0        1.139273    0.503596   -0.634137
      4          6           0        3.106703    0.328092   -0.076415
      5          1           0        3.016701   -0.701362    0.268731
      6          1           0        3.567323    0.308336   -1.070540
      7          1           0        3.790507    0.837550    0.601491
      8          1           0       -2.043793    2.400224    0.632082
      9          1           0       -1.005173    2.148659   -0.785787
     10          1           0       -0.391272    1.779401    0.847414
     11          1           0       -0.167911   -1.980264    1.579650
     12          1           0        0.939905   -0.598142    1.317026
     13          1           0        1.273496   -2.170291    0.558903
     14          6           0       -1.263620    1.774088    0.200968
     15         16           0       -1.976698    0.102422    0.080793
     16         16           0       -0.431403   -1.038768   -0.633823
     17          6           0        0.489855   -1.481936    0.873996
 ---------------------------------------------------------------------

 SCF Done:  E(RHF) =  -969.839945948     A.U. after    2 cycles

 The electronic state is 1-A.
 Alpha  occ. eigenvalues --  -93.96632 -93.96570 -15.47506 -11.26310 -11.25847
 Alpha  occ. eigenvalues --  -11.25250  -8.24671  -8.24564  -6.22475  -6.22372
 Alpha  occ. eigenvalues --   -6.22257  -6.22159  -6.22064  -6.21936  -1.17441
 Alpha  occ. eigenvalues --   -1.11502  -1.02392  -0.91606  -0.90962  -0.80785
 Alpha  occ. eigenvalues --   -0.70482  -0.63371  -0.61962  -0.60383  -0.60081
 Alpha  occ. eigenvalues --   -0.58170  -0.56998  -0.54623  -0.52714  -0.49762
 Alpha  occ. eigenvalues --   -0.44834  -0.42637  -0.36475  -0.35492
 Alpha virt. eigenvalues --    0.03439   0.03991   0.04331   0.04896   0.05608
 Alpha virt. eigenvalues --    0.06061   0.06590   0.07352   0.07891   0.09426
 Alpha virt. eigenvalues --    0.09784   0.10545   0.11768   0.13135   0.14247

 Mulliken charges:
               1
     1  N    0.056017
     2  H    0.188779
     3  H    0.096863
     4  C   -0.416752
     5  H   -0.003307
     6  H    0.100471
     7  H    0.086643
     8  H    0.076714
     9  H    0.193513
    10  H    0.327075
    11  H    0.023907
    12  H    0.263444
    13  H    0.262716
    14  C   -0.696122
    15  S    0.151004
    16  S   -0.162615
    17  C   -0.548349
 Sum of Mulliken charges =  -0.00000

 Dipole moment (field-independent basis, Debye):
    X=              1.8577    Y=              1.2099    Z=              0.3601  Tot=              2.2460

 Test job not archived.
 1\1\GINC-SE084\SP\RHF\Aug-CC-pVDZ\C3H11N1S2\OHZDE\09-Apr-2025\0\\#t hf
  aug-cc-pvdz iop(5/13=1,5/36=2,99/5=2) pseudo=read geom=check guess=(r
 ead,tcheck) scf=(maxcycle=1)\\title\\0,1\N,0,-0.790217,0.77789413,2.28
 472778\H,0,-1.73224372,0.61681804,2.6155392\H,0,-0.85550262,0.99181266
 ,1.29666237\C,0,-0.16836631,1.8838218,3.01270443\H,0,0.84688345,2.0289
 6517,2.64500493\H,0,-0.69345824,2.84224623,2.93178871\H,0,-0.0959132,1
 .62767695,4.06903376\H,0,-1.96162847,-2.59154916,0.17042091\H,0,-2.490
 8102,-0.89902716,0.25821713\H,0,-1.15802705,-1.47267853,1.2951285\H,0,

 Normal termination of Gaussian 16 at Wed Apr  9 19:24:21 2025.
