 Gaussian 16, Revision C.01,

 ----------------------------------------------------------------------
 #t hf aug-cc-pvdz symm=none int=(grid=ultrafine) guess=(read,tcheck) s
 table=(opt,rrhf)
 ----------------------------------------------------------------------
 -----
 title
 -----
 Symbolic Z-matrix:
 Charge =  0 Multiplicity = 1

 SCF Done:  E(RHF) =  -936.857314216     A.U. after   11 cycles
 Normal termination of Gaussian 16 at Wed Apr  9 19:29:46 2025.
 Gaussian 16:  ES64L-G16RevC.01  3-Jul-2019

 ----------------------------------------------------------------------
 #t hf aug-cc-pvdz iop(5/13=1,5/36=2,99/5=2) pseudo=read geom=check gue
 ss=(read,tcheck) scf=(maxcycle=1)
 ----------------------------------------------------------------------
 -----
 title
 -----
 Structure from the checkpoint file:  "HB300SPXx10_1330_4.37_2.00_hydrogenchloride_dimethylsulfide_dimer_mol1.chk"
 Charge =  0 Multiplicity = 1

                         Standard orientation:
 ---------------------------------------------------------------------
 Center     Atomic      Atomic             Coordinates (Angstroms)
 Number     Number       Type             X           Y           Z
 ---------------------------------------------------------------------
      1          1           0       -2.425564   -0.000003   -0.399230
      2         17           0       -3.679164   -0.000001    0.027542
      3          1           0        1.110986   -1.354202    1.200256
      4          1           0        2.889885   -1.365705    1.052081
      5          1           0        1.893942   -2.299391   -0.078350
      6          1           0        1.893936    2.299392   -0.078351
      7          1           0        2.889878    1.365708    1.052084
      8          1           0        1.110978    1.354203    1.200253
      9          6           0        1.948961   -1.385386    0.507106
     10         16           0        1.862141    0.000000   -0.656389
     11          6           0        1.948956    1.385388    0.507105
 ---------------------------------------------------------------------

 SCF Done:  E(RHF) =  -937.087279463     A.U. after    2 cycles

 The electronic state is 1-A.
 Alpha  occ. eigenvalues -- -105.58307 -93.94395 -11.26654 -11.26626 -10.62963
 Alpha  occ. eigenvalues --   -8.22509  -7.79932  -7.79546  -7.79545  -6.20342
 Alpha  occ. eigenvalues --   -6.20183  -6.19956  -1.08983  -1.06354  -0.96488
 Alpha  occ. eigenvalues --   -0.83124  -0.62082  -0.61915  -0.61645  -0.59202
 Alpha  occ. eigenvalues --   -0.57953  -0.51017  -0.48241  -0.48236  -0.44748
 Alpha  occ. eigenvalues --   -0.34934
 Alpha virt. eigenvalues --    0.03382   0.03846   0.04183   0.05131   0.06632
 Alpha virt. eigenvalues --    0.07107   0.07694   0.09282   0.12141   0.12740
 Alpha virt. eigenvalues --    0.13497   0.14102   0.14742   0.15882   0.16376

 Mulliken charges:
               1
     1  H    0.208440
     2  Cl  -0.205743
     3  H    0.172783
     4  H    0.174844
     5  H    0.142053
     6  H    0.142053
     7  H    0.174844
     8  H    0.172784
     9  C   -0.668261
    10  S    0.354464
    11  C   -0.668262
 Sum of Mulliken charges =  -0.00000

 Dipole moment (field-independent basis, Debye):
    X=              1.5754    Y=             -0.0000    Z=              1.4014  Tot=              2.1085

 Test job not archived.
 1\1\GINC-SE224\SP\RHF\Aug-CC-pVDZ\C2H7Cl1S1\OHZDE\09-Apr-2025\0\\#t hf
  aug-cc-pvdz iop(5/13=1,5/36=2,99/5=2) pseudo=read geom=check guess=(r
 ead,tcheck) scf=(maxcycle=1)\\title\\0,1\H,0,-0.09169332,-0.01707414,-
 1.03147385\Cl,0,0.64323048,-0.44620369,-2.04605842\H,0,0.80382746,1.28
 299166,2.76421731\H,0,0.1518641,1.7194473,4.36765777\H,0,-0.08684223,2
 .79961881,2.98281335\H,0,-2.13952384,-1.30800438,3.23328309\H,0,-1.067
 30662,-0.72024756,4.51642024\H,0,-0.40507834,-1.13614993,2.9117235\C,0
 ,-0.01750885,1.76066349,3.29418821\S,0,-1.59117622,0.97020313,2.870753

 Normal termination of Gaussian 16 at Wed Apr  9 19:29:49 2025.
