 Gaussian 16, Revision C.01,

 ----------------------------------------------------------------------
 #t hf aug-cc-pvdz symm=none int=(grid=ultrafine) guess=(read,tcheck) s
 table=(opt,rrhf)
 ----------------------------------------------------------------------
 -----
 title
 -----
 Symbolic Z-matrix:
 Charge =  0 Multiplicity = 1

 SCF Done:  E(RHF) =  -1102.15502679     A.U. after   13 cycles
 Normal termination of Gaussian 16 at Wed Apr  9 19:26:33 2025.
 Gaussian 16:  ES64L-G16RevC.01  3-Jul-2019

 ----------------------------------------------------------------------
 #t hf aug-cc-pvdz iop(5/13=1,5/36=2,99/5=2) pseudo=read geom=check gue
 ss=(read,tcheck) scf=(maxcycle=1)
 ----------------------------------------------------------------------
 -----
 title
 -----
 Structure from the checkpoint file:  "HB300SPXx10_1114_4.15_0.95_aceticacid_dimethyldisulfide_dimer_mol1.chk"
 Charge =  0 Multiplicity = 1

                         Standard orientation:
 ---------------------------------------------------------------------
 Center     Atomic      Atomic             Coordinates (Angstroms)
 Number     Number       Type             X           Y           Z
 ---------------------------------------------------------------------
      1          6           0        2.794760   -0.069627   -0.040017
      2          8           0        2.460250    1.080473   -0.191775
      3          8           0        1.928041   -1.094568   -0.045729
      4          1           0        1.026503   -0.741303   -0.203372
      5          6           0        4.208293   -0.533846    0.175457
      6          1           0        4.876530    0.319766    0.194579
      7          1           0        4.277484   -1.086212    1.111506
      8          1           0        4.496206   -1.215435   -0.623955
      9          1           0       -4.668780   -0.660732    0.248757
     10          1           0       -3.933229   -0.071775   -1.257529
     11          1           0       -3.937317    0.953942    0.202835
     12          1           0       -0.405019    1.291943    1.567501
     13          1           0       -1.426478    2.350126    0.554097
     14          1           0        0.314392    2.156379    0.196816
     15          6           0       -3.863001   -0.062205   -0.173925
     16         16           0       -2.313956   -0.848394    0.369550
     17         16           0       -0.877530    0.274592   -0.572247
     18          6           0       -0.583861    1.665161    0.563809
 ---------------------------------------------------------------------

 SCF Done:  E(RHF) =  -1102.59685093     A.U. after    2 cycles

 The electronic state is 1-A.
 Alpha  occ. eigenvalues --  -93.97757 -93.97392 -20.57885 -20.52794 -11.38754
 Alpha  occ. eigenvalues --  -11.27493 -11.26548 -11.24687  -8.25790  -8.25409
 Alpha  occ. eigenvalues --   -6.23594  -6.23381  -6.23215  -6.23191  -6.23005
 Alpha  occ. eigenvalues --   -6.22776  -1.53446  -1.44092  -1.12547  -1.03245
 Alpha  occ. eigenvalues --   -1.02306  -0.92340  -0.82340  -0.80943  -0.70278
 Alpha  occ. eigenvalues --   -0.67634  -0.64219  -0.62412  -0.61211  -0.60667
 Alpha  occ. eigenvalues --   -0.59082  -0.57435  -0.56449  -0.55174  -0.54482
 Alpha  occ. eigenvalues --   -0.50559  -0.46395  -0.45622  -0.43762  -0.37673
 Alpha  occ. eigenvalues --   -0.36499
 Alpha virt. eigenvalues --    0.03398   0.03949   0.04385   0.04674   0.05712
 Alpha virt. eigenvalues --    0.05885   0.06243   0.07222   0.08065   0.08379
 Alpha virt. eigenvalues --    0.09939   0.10884   0.11797   0.12076   0.13695

 Mulliken charges:
               1
     1  C    1.882011
     2  O   -1.225639
     3  O   -1.383212
     4  H    0.794690
     5  C   -0.581583
     6  H    0.175331
     7  H    0.221976
     8  H    0.230527
     9  H    0.168937
    10  H    0.221207
    11  H    0.190894
    12  H    0.195682
    13  H    0.132171
    14  H    0.243177
    15  C   -0.744195
    16  S    0.197634
    17  S   -0.114265
    18  C   -0.605343
 Sum of Mulliken charges =   0.00000

 Dipole moment (field-independent basis, Debye):
    X=             -1.3662    Y=              0.4112    Z=              0.7240  Tot=              1.5999

 Test job not archived.
 1\1\GINC-SE045\SP\RHF\Aug-CC-pVDZ\C4H10O2S2\OHZDE\09-Apr-2025\0\\#t hf
  aug-cc-pvdz iop(5/13=1,5/36=2,99/5=2) pseudo=read geom=check guess=(r
 ead,tcheck) scf=(maxcycle=1)\\title\\0,1\C,0,2.51189353,-1.3688008,0.0
 1480743\O,0,1.76216303,-1.97148126,0.7444221\O,0,2.20838592,-0.1819016
 3,-0.53372859\H,0,1.31541707,0.08523139,-0.22768185\C,0,3.88111819,-1.
 83853704,-0.39087365\H,0,4.08390343,-2.80677129,0.05292751\H,0,3.94369
 33,-1.90220497,-1.47628393\H,0,4.62800978,-1.11523999,-0.06604891\H,0,
 -3.7590837,2.67586602,-0.65805119\H,0,-2.99732161,2.57248716,0.9437711

 Normal termination of Gaussian 16 at Wed Apr  9 19:26:41 2025.
