 Gaussian 16, Revision C.01,

 ----------------------------------------------------------------------
 #t hf aug-cc-pvdz symm=none int=(grid=ultrafine) guess=(read,tcheck) s
 table=(opt,rrhf)
 ----------------------------------------------------------------------
 -----
 title
 -----
 Symbolic Z-matrix:
 Charge =  0 Multiplicity = 1

 SCF Done:  E(RHF) =  -914.492053800     A.U. after   12 cycles

 1\1\GINC-SE177\Stability\RHF\Aug-CC-pVDZ\C3H10S2\OHZDE\09-Apr-2025\0\\
 #t hf aug-cc-pvdz symm=none int=(grid=ultrafine) guess=(read,tcheck) s
 table=(opt,rrhf)\\title\\0,1\H,0,2.306559,-2.0578968,-0.64952301\H,0,3
 .32031438,-1.47471252,0.67641305\H,0,2.52307119,-0.31083024,-0.3888258
 5\H,0,0.07002633,-1.01993654,0.36023035\C,0,2.42249764,-1.27751778,0.0
 9684023\S,0,1.02865784,-1.2837739,1.27093846\H,0,0.7459842,1.43540162,
 0.09782784\H,0,-0.16682454,2.7140427,-0.74549305\H,0,0.84804052,1.5944
 1081,-1.66783087\H,0,-2.95972083,0.19360205,0.49006805\H,0,-2.43578692

 Normal termination of Gaussian 16 at Wed Apr  9 04:10:29 2025.
 Gaussian 16:  ES64L-G16RevC.01  3-Jul-2019

 ----------------------------------------------------------------------
 #t hf aug-cc-pvdz iop(5/13=1,5/36=2,99/5=2) pseudo=read geom=check gue
 ss=(read,tcheck) scf=(maxcycle=1)
 ----------------------------------------------------------------------
 -----
 title
 -----
 Structure from the checkpoint file:  "HB300SPXx10_1184_4.23_0.95_methanethiol_dimethylsulfide_dimer_mol1.chk"
 Charge =  0 Multiplicity = 1

                         Standard orientation:
 ---------------------------------------------------------------------
 Center     Atomic      Atomic             Coordinates (Angstroms)
 Number     Number       Type             X           Y           Z
 ---------------------------------------------------------------------
      1          1           0        2.666561    0.978973   -1.283575
      2          1           0        3.517244    0.867748    0.262349
      3          1           0        1.919508    1.621474    0.198379
      4          1           0        0.681120   -0.623162   -0.515311
      5          6           0        2.541557    0.832274   -0.214769
      6         16           0        1.843069   -0.812797    0.141870
      7          1           0       -0.278833    0.940794    1.269905
      8          1           0       -1.961606    1.516347    1.397757
      9          1           0       -0.835120    2.311166    0.287116
     10          1           0       -2.280410   -1.996268   -0.402078
     11          1           0       -2.829984   -1.039247    0.983412
     12          1           0       -1.131393   -1.563867    0.878104
     13          6           0       -1.122827    1.357501    0.722871
     14         16           0       -1.593283    0.262731   -0.640751
     15          6           0       -1.996006   -1.225261    0.309571
 ---------------------------------------------------------------------

 SCF Done:  E(RHF) =  -914.751895339     A.U. after    2 cycles

 The electronic state is 1-A.
 Alpha  occ. eigenvalues --  -93.94645 -93.93673 -11.26507 -11.26451 -11.26387
 Alpha  occ. eigenvalues --   -8.22748  -8.21799  -6.20577  -6.20420  -6.20208
 Alpha  occ. eigenvalues --   -6.19660  -6.19521  -6.19298  -1.09280  -1.05370
 Alpha  occ. eigenvalues --   -0.96356  -0.87942  -0.83235  -0.63079  -0.61609
 Alpha  occ. eigenvalues --   -0.60363  -0.59505  -0.59120  -0.57537  -0.52772
 Alpha  occ. eigenvalues --   -0.50976  -0.46386  -0.44932  -0.35680  -0.34913
 Alpha virt. eigenvalues --    0.03381   0.03743   0.04388   0.04644   0.06040
 Alpha virt. eigenvalues --    0.06555   0.06806   0.07785   0.08937   0.10078
 Alpha virt. eigenvalues --    0.10439   0.12970   0.13327   0.14272   0.14682

 Mulliken charges:
               1
     1  H    0.133161
     2  H    0.142462
     3  H    0.119926
     4  H    0.545133
     5  C   -0.674637
     6  S   -0.220250
     7  H    0.176654
     8  H    0.108603
     9  H    0.173112
    10  H    0.160379
    11  H    0.165434
    12  H    0.086674
    13  C   -0.548850
    14  S    0.208213
    15  C   -0.576013
 Sum of Mulliken charges =  -0.00000

 Dipole moment (field-independent basis, Debye):
    X=             -0.5739    Y=              1.2721    Z=              0.9999  Tot=              1.7168

 Test job not archived.
 1\1\GINC-SE177\SP\RHF\Aug-CC-pVDZ\C3H10S2\OHZDE\09-Apr-2025\0\\#t hf a
 ug-cc-pvdz iop(5/13=1,5/36=2,99/5=2) pseudo=read geom=check guess=(rea
 d,tcheck) scf=(maxcycle=1)\\title\\0,1\H,0,2.306559,-2.0578968,-0.6495
 2301\H,0,3.32031438,-1.47471252,0.67641305\H,0,2.52307119,-0.31083024,
 -0.38882585\H,0,0.07002633,-1.01993654,0.36023035\C,0,2.42249764,-1.27
 751778,0.09684023\S,0,1.02865784,-1.2837739,1.27093846\H,0,0.7459842,1
 .43540162,0.09782784\H,0,-0.16682454,2.7140427,-0.74549305\H,0,0.84804
 052,1.59441081,-1.66783087\H,0,-2.95972083,0.19360205,0.49006805\H,0,-

 Normal termination of Gaussian 16 at Wed Apr  9 04:10:34 2025.
