 Gaussian 16, Revision C.01,

 ----------------------------------------------------------------------
 #t hf aug-cc-pvdz symm=none int=(grid=ultrafine) guess=(read,tcheck) s
 table=(opt,rrhf)
 ----------------------------------------------------------------------
 -----
 title
 -----
 Symbolic Z-matrix:
 Charge =  0 Multiplicity = 1

 SCF Done:  E(RHF) =  -630.498507799     A.U. after   14 cycles

 1\1\GINC-SE207\Stability\RHF\Aug-CC-pVDZ\C6H10S1\OHZDE\09-Apr-2025\0\\
 #t hf aug-cc-pvdz symm=none int=(grid=ultrafine) guess=(read,tcheck) s
 table=(opt,rrhf)\\title\\0,1\C,0,2.59090187,-0.04968862,0.43961338\H,0
 ,1.93323189,0.27193926,-0.33858357\C,0,3.30609004,-0.41751171,1.325807
 27\H,0,3.94715573,-0.74121457,2.10714096\H,0,0.64913987,-1.71913298,-0
 .37850813\H,0,-0.82552028,-1.76596597,-1.35398912\H,0,-1.07337188,-2.0
 2551013,1.29866424\H,0,-1.38857366,1.77037472,0.37588085\H,0,-2.170409
 06,-0.92505347,0.46658945\H,0,0.32327887,1.96101412,0.77013087\H,0,-1.

 Normal termination of Gaussian 16 at Wed Apr  9 19:22:29 2025.
 Gaussian 16:  ES64L-G16RevC.01  3-Jul-2019

 ----------------------------------------------------------------------
 #t hf aug-cc-pvdz iop(5/13=1,5/36=2,99/5=2) pseudo=read geom=check gue
 ss=(read,tcheck) scf=(maxcycle=1)
 ----------------------------------------------------------------------
 -----
 title
 -----
 Structure from the checkpoint file:  "HB300SPXx10_1001_4.04_0.80_ethyne_tetrahydrothiophene_dimer_mol1.chk"
 Charge =  0 Multiplicity = 1

                         Standard orientation:
 ---------------------------------------------------------------------
 Center     Atomic      Atomic             Coordinates (Angstroms)
 Number     Number       Type             X           Y           Z
 ---------------------------------------------------------------------
      1          6           0       -2.219252   -0.402730   -0.064243
      2          1           0       -1.358636   -1.033778   -0.012449
      3          6           0       -3.166982    0.325682   -0.122141
      4          1           0       -4.012624    0.964815   -0.173422
      5          1           0       -0.189158    0.044281   -1.768856
      6          1           0        1.496821   -0.397111   -2.070565
      7          1           0        0.982508    2.110817   -1.288806
      8          1           0        1.683395   -0.073644    1.888695
      9          1           0        2.308467    1.253116   -0.505845
     10          1           0       -0.062124   -0.264909    2.085661
     11          1           0        0.886234    2.132976    1.314686
     12          1           0       -0.552736    1.485254    0.532299
     13         16           0        0.722428   -1.295696    0.034985
     14          6           0        0.796189   -0.051044   -1.315557
     15          6           0        1.227980    1.256718   -0.657297
     16          6           0        0.512791    1.320360    0.691400
     17          6           0        0.725773   -0.030767    1.374311
 ---------------------------------------------------------------------

 SCF Done:  E(RHF) =  -630.812753187     A.U. after    2 cycles

 The electronic state is 1-A.
 Alpha  occ. eigenvalues --  -93.93623 -11.26577 -11.26493 -11.24197 -11.23788
 Alpha  occ. eigenvalues --  -11.23600 -11.22958  -8.21841  -6.19626  -6.19512
 Alpha  occ. eigenvalues --   -6.19316  -1.14365  -1.02485  -0.99360  -0.99041
 Alpha  occ. eigenvalues --   -0.80416  -0.80242  -0.76011  -0.69190  -0.66004
 Alpha  occ. eigenvalues --   -0.65160  -0.61135  -0.55652  -0.51793  -0.50427
 Alpha  occ. eigenvalues --   -0.49196  -0.49098  -0.43790  -0.40912  -0.40717
 Alpha  occ. eigenvalues --   -0.34858
 Alpha virt. eigenvalues --    0.03195   0.03454   0.03767   0.04574   0.05358
 Alpha virt. eigenvalues --    0.06287   0.06558   0.06841   0.07854   0.08795
 Alpha virt. eigenvalues --    0.10546   0.11639   0.12854   0.13536   0.14140

 Mulliken charges:
               1
     1  C    0.647160
     2  H    0.011497
     3  C   -0.151948
     4  H   -0.330863
     5  H    0.129637
     6  H    0.131768
     7  H    0.121633
     8  H    0.103235
     9  H    0.097677
    10  H    0.137317
    11  H    0.139298
    12  H    0.115404
    13  S    0.128379
    14  C   -0.383199
    15  C   -0.244295
    16  C   -0.283052
    17  C   -0.369646
 Sum of Mulliken charges =  -0.00000

 Dipole moment (field-independent basis, Debye):
    X=              0.6476    Y=              2.2809    Z=              0.0027  Tot=              2.3711

 Test job not archived.
 1\1\GINC-SE207\SP\RHF\Aug-CC-pVDZ\C6H10S1\OHZDE\09-Apr-2025\0\\#t hf a
 ug-cc-pvdz iop(5/13=1,5/36=2,99/5=2) pseudo=read geom=check guess=(rea
 d,tcheck) scf=(maxcycle=1)\\title\\0,1\C,0,2.59090187,-0.04968862,0.43
 961338\H,0,1.93323189,0.27193926,-0.33858357\C,0,3.30609004,-0.4175117
 1,1.32580727\H,0,3.94715573,-0.74121457,2.10714096\H,0,0.64913987,-1.7
 1913298,-0.37850813\H,0,-0.82552028,-1.76596597,-1.35398912\H,0,-1.073
 37188,-2.02551013,1.29866424\H,0,-1.38857366,1.77037472,0.37588085\H,0
 ,-2.17040906,-0.92505347,0.46658945\H,0,0.32327887,1.96101412,0.770130

 Normal termination of Gaussian 16 at Wed Apr  9 19:22:36 2025.
