 Gaussian 16, Revision C.01,

 ----------------------------------------------------------------------
 #t hf aug-cc-pvdz symm=none int=(grid=ultrafine) guess=(read,tcheck) s
 table=(opt,rrhf)
 ----------------------------------------------------------------------
 -----
 title
 -----
 Symbolic Z-matrix:
 Charge =  0 Multiplicity = 1

 SCF Done:  E(RHF) =  -437.701223860     A.U. after   11 cycles
 Normal termination of Gaussian 16 at Wed Apr  9 19:33:48 2025.
 Gaussian 16:  ES64L-G16RevC.01  3-Jul-2019

 ----------------------------------------------------------------------
 #t hf aug-cc-pvdz iop(5/13=1,5/36=2,99/5=2) pseudo=read geom=check gue
 ss=(read,tcheck) scf=(maxcycle=1)
 ----------------------------------------------------------------------
 -----
 title
 -----
 Structure from the checkpoint file:  "HB300SPXx10_14_1.02_0.95_phosphine_methylamine_dimer_mol1.chk"
 Charge =  0 Multiplicity = 1

                         Standard orientation:
 ---------------------------------------------------------------------
 Center     Atomic      Atomic             Coordinates (Angstroms)
 Number     Number       Type             X           Y           Z
 ---------------------------------------------------------------------
      1         15           0        1.835443    0.034336   -0.109952
      2          1           0        0.707787   -0.786124    0.138198
      3          1           0        2.767835   -0.900730    0.405439
      4          1           0        1.720566    0.731406    1.119194
      5          7           0       -1.810887   -0.732931    0.033487
      6          1           0       -2.386021   -1.034958    0.808113
      7          1           0       -2.228512   -1.105817   -0.808363
      8          6           0       -1.731428    0.726448   -0.023375
      9          1           0       -1.093109    1.018981   -0.856296
     10          1           0       -2.693289    1.238425   -0.139047
     11          1           0       -1.262121    1.095602    0.887889
 ---------------------------------------------------------------------

 SCF Done:  E(RHF) =  -437.858416299     A.U. after    2 cycles

 The electronic state is 1-A.
 Alpha  occ. eigenvalues --  -84.25944 -15.48667 -11.25517  -6.73117  -4.25504
 Alpha  occ. eigenvalues --   -4.25378  -4.24743  -1.17581  -0.91157  -0.85554
 Alpha  occ. eigenvalues --   -0.69897  -0.63543  -0.58780  -0.53709  -0.49393
 Alpha  occ. eigenvalues --   -0.49040  -0.43029  -0.34911
 Alpha virt. eigenvalues --    0.03418   0.04831   0.05087   0.05589   0.06569
 Alpha virt. eigenvalues --    0.07759   0.08736   0.09976   0.10648   0.11153
 Alpha virt. eigenvalues --    0.11901   0.14475   0.16486   0.16669   0.18013

 Mulliken charges:
               1
     1  P   -1.071494
     2  H    0.372320
     3  H    0.342566
     4  H    0.347754
     5  N   -0.121387
     6  H    0.161419
     7  H    0.158222
     8  C   -0.443044
     9  H    0.109164
    10  H    0.060372
    11  H    0.084106
 Sum of Mulliken charges =  -0.00000

 Dipole moment (field-independent basis, Debye):
    X=             -1.8247    Y=              0.1373    Z=              0.1828  Tot=              1.8390

 Test job not archived.
 1\1\GINC-SE207\SP\RHF\Aug-CC-pVDZ\C1H8N1P1\OHZDE\09-Apr-2025\0\\#t hf
 aug-cc-pvdz iop(5/13=1,5/36=2,99/5=2) pseudo=read geom=check guess=(re
 ad,tcheck) scf=(maxcycle=1)\\title\\0,1\P,0,1.60554835,-0.39061782,-0.
 727406\H,0,0.88263451,-0.28817357,0.48636549\H,0,2.87161411,-0.472756,
 -0.09521777\H,0,1.68852005,1.01288402,-0.9096172\N,0,-1.45650172,0.102
 17504,1.34285926\H,0,-1.65700017,0.7829638,2.06283974\H,0,-1.99385231,
 -0.72606558,1.56066039\C,0,-1.80477835,0.61952162,0.01983614\H,0,-1.56
 218035,-0.12903331,-0.73355267\H,0,-2.85724725,0.89704206,-0.10653593\

 Normal termination of Gaussian 16 at Wed Apr  9 19:33:51 2025.
