 Gaussian 16, Revision C.01,

 ----------------------------------------------------------------------
 #t hf aug-cc-pvdz symm=none int=(grid=ultrafine) guess=(read,tcheck) s
 table=(opt,rrhf)
 ----------------------------------------------------------------------
 -----
 title
 -----
 Symbolic Z-matrix:
 Charge =  0 Multiplicity = 1

 SCF Done:  E(RHF) =  -783.971655224     A.U. after   15 cycles
 Normal termination of Gaussian 16 at Wed Apr  9 19:33:35 2025.
 Gaussian 16:  ES64L-G16RevC.01  3-Jul-2019

 ----------------------------------------------------------------------
 #t hf aug-cc-pvdz iop(5/13=1,5/36=2,99/5=2) pseudo=read geom=check gue
 ss=(read,tcheck) scf=(maxcycle=1)
 ----------------------------------------------------------------------
 -----
 title
 -----
 Structure from the checkpoint file:  "HB300SPXx10_1466_5.09_1.05_nitromethane_phosphineF2_dimer_mol1.chk"
 Charge =  0 Multiplicity = 1

                         Standard orientation:
 ---------------------------------------------------------------------
 Center     Atomic      Atomic             Coordinates (Angstroms)
 Number     Number       Type             X           Y           Z
 ---------------------------------------------------------------------
      1          1           0       -1.702555    1.763849    0.065264
      2          1           0       -2.919318    1.179291   -1.094917
      3          1           0       -3.267013    1.147590    0.677263
      4          6           0       -2.515392    1.060963   -0.096619
      5          7           0       -1.904801   -0.299075   -0.006845
      6          8           0       -2.003835   -0.897960    1.045204
      7          8           0       -1.309344   -0.703387   -0.994759
      8         15           0        1.713552   -0.213466   -0.392996
      9          9           0        3.086236   -0.034841    0.408741
     10          9           0        0.907715    1.018359    0.257067
     11          1           0        1.171447   -1.201881    0.479130
 ---------------------------------------------------------------------

 SCF Done:  E(RHF) =  -784.431861260     A.U. after    2 cycles

 The electronic state is 1-A.
 Alpha  occ. eigenvalues --  -84.40795 -26.48346 -26.47871 -20.60830 -20.60059
 Alpha  occ. eigenvalues --  -15.80063 -11.32391  -6.86453  -4.39269  -4.38578
 Alpha  occ. eigenvalues --   -4.37541  -1.68744  -1.62275  -1.57812  -1.52386
 Alpha  occ. eigenvalues --   -1.13603  -0.90317  -0.88212  -0.78784  -0.77417
 Alpha  occ. eigenvalues --   -0.76931  -0.71155  -0.70683  -0.69178  -0.64940
 Alpha  occ. eigenvalues --   -0.64055  -0.62173  -0.61534  -0.57563  -0.50815
 Alpha  occ. eigenvalues --   -0.49895  -0.46632  -0.38160
 Alpha virt. eigenvalues --    0.03048   0.04417   0.05072   0.05806   0.06429
 Alpha virt. eigenvalues --    0.07839   0.09415   0.09651   0.10631   0.13198
 Alpha virt. eigenvalues --    0.13526   0.14999   0.16395   0.16784   0.18169

 Mulliken charges:
               1
     1  H    0.217681
     2  H    0.166382
     3  H    0.124263
     4  C   -0.242824
     5  N    2.485096
     6  O   -1.324297
     7  O   -1.394773
     8  P    1.486125
     9  F   -0.775203
    10  F   -0.814797
    11  H    0.072347
 Sum of Mulliken charges =   0.00000

 Dipole moment (field-independent basis, Debye):
    X=             -2.4897    Y=              2.0385    Z=             -0.6657  Tot=              3.2859

 Test job not archived.
 1\1\GINC-SE115\SP\RHF\Aug-CC-pVDZ\C1H4F2N1O2P1\OHZDE\09-Apr-2025\0\\#t
  hf aug-cc-pvdz iop(5/13=1,5/36=2,99/5=2) pseudo=read geom=check guess
 =(read,tcheck) scf=(maxcycle=1)\\title\\0,1\H,0,0.49481138,0.55069733,
 -2.50359179\H,0,-1.08891031,0.71291216,-3.29967626\H,0,-0.00441746,2.1
 4812453,-3.13671373\C,0,-0.34098337,1.21704881,-2.69950341\N,0,-0.9468
 7558,1.51662809,-1.36768821\O,0,-0.63929751,2.55888018,-0.82511637\O,0
 ,-1.68734525,0.66720154,-0.89420145\P,0,0.05746193,-0.88630121,1.17517
 523\F,0,1.18593472,-1.20894768,2.26209605\F,0,1.0254755,-0.50758677,-0

 Normal termination of Gaussian 16 at Wed Apr  9 19:33:39 2025.
