 Gaussian 16, Revision C.01,

 ----------------------------------------------------------------------
 #t hf aug-cc-pvdz symm=none int=(grid=ultrafine) guess=(read,tcheck) s
 table=(opt,rrhf)
 ----------------------------------------------------------------------
 -----
 title
 -----
 Symbolic Z-matrix:
 Charge =  0 Multiplicity = 1

 SCF Done:  E(RHF) =  -1037.70068148     A.U. after   14 cycles
 Normal termination of Gaussian 16 at Wed Apr  9 19:34:49 2025.
 Gaussian 16:  ES64L-G16RevC.01  3-Jul-2019

 ----------------------------------------------------------------------
 #t hf aug-cc-pvdz iop(5/13=1,5/36=2,99/5=2) pseudo=read geom=check gue
 ss=(read,tcheck) scf=(maxcycle=1)
 ----------------------------------------------------------------------
 -----
 title
 -----
 Structure from the checkpoint file:  "HB300SPXx10_1476_5.10_1.05_phosphaalkene_phosphineF2_dimer_mol1.chk"
 Charge =  0 Multiplicity = 1

                         Standard orientation:
 ---------------------------------------------------------------------
 Center     Atomic      Atomic             Coordinates (Angstroms)
 Number     Number       Type             X           Y           Z
 ---------------------------------------------------------------------
      1          1           0       -1.788889   -2.917994   -0.585829
      2          1           0       -0.778195   -2.189583    0.663819
      3          1           0       -2.543270   -2.054352    0.753446
      4          1           0       -1.460041    2.156838   -1.515951
      5          1           0       -0.543859    1.190922    1.993630
      6          1           0       -2.263087    2.729576   -0.049166
      7          1           0       -0.509249    2.643902   -0.105344
      8          1           0       -1.408092   -0.347367    2.002547
      9          1           0       -2.293901    1.180544    2.046597
     10         15           0       -1.623884   -0.528084   -0.965099
     11          6           0       -1.476457    0.743588    0.125330
     12          6           0       -1.423534    2.141034   -0.428160
     13          6           0       -1.427395    0.667552    1.620010
     14          6           0       -1.687833   -2.062282    0.079264
     15         15           0        1.834757    0.259267   -0.216052
     16          9           0        3.434297    0.146668   -0.246536
     17          9           0        1.554659   -0.896386    0.857992
     18          1           0        1.616189   -0.552112   -1.368262
 ---------------------------------------------------------------------

 SCF Done:  E(RHF) =  -1038.14044440     A.U. after    2 cycles

 The electronic state is 1-A.
 Alpha  occ. eigenvalues --  -84.40899 -84.25601 -26.48258 -26.47735 -11.27625
 Alpha  occ. eigenvalues --  -11.24395 -11.24123 -11.23362  -6.86545  -6.72937
 Alpha  occ. eigenvalues --   -4.39398  -4.38770  -4.37794  -4.25875  -4.24959
 Alpha  occ. eigenvalues --   -4.24468  -1.62227  -1.57656  -1.09211  -0.98093
 Alpha  occ. eigenvalues --   -0.95647  -0.88239  -0.84885  -0.71016  -0.70851
 Alpha  occ. eigenvalues --   -0.69266  -0.69013  -0.64803  -0.62266  -0.61408
 Alpha  occ. eigenvalues --   -0.60969  -0.59935  -0.57679  -0.57344  -0.55709
 Alpha  occ. eigenvalues --   -0.55556  -0.52524  -0.46905  -0.38493  -0.35190
 Alpha  occ. eigenvalues --   -0.31752
 Alpha virt. eigenvalues --    0.03531   0.03887   0.04289   0.04437   0.05841
 Alpha virt. eigenvalues --    0.06213   0.06530   0.06955   0.07826   0.08328
 Alpha virt. eigenvalues --    0.09392   0.09938   0.10549   0.11305   0.11906

 Mulliken charges:
               1
     1  H   -0.033487
     2  H    0.074332
     3  H    0.113988
     4  H    0.131948
     5  H    0.206083
     6  H    0.223628
     7  H    0.236517
     8  H    0.085578
     9  H    0.219191
    10  P    1.085013
    11  C   -0.368545
    12  C   -0.471701
    13  C   -0.540578
    14  C   -0.855674
    15  P    1.494353
    16  F   -0.784584
    17  F   -0.858517
    18  H    0.042457
 Sum of Mulliken charges =  -0.00000

 Dipole moment (field-independent basis, Debye):
    X=             -1.5027    Y=              0.3963    Z=              0.2302  Tot=              1.5710

 Test job not archived.
 1\1\GINC-SE056\SP\RHF\Aug-CC-pVDZ\C4H10F2P2\OHZDE\09-Apr-2025\0\\#t hf
  aug-cc-pvdz iop(5/13=1,5/36=2,99/5=2) pseudo=read geom=check guess=(r
 ead,tcheck) scf=(maxcycle=1)\\title\\0,1\H,0,-0.66372889,3.26375392,-1
 .41484082\H,0,0.57607353,2.07688321,-1.82463407\H,0,-0.55842324,2.6448
 712,-3.06242126\H,0,-2.87100416,-1.40911587,-1.55416728\H,0,0.42715494
 ,-1.23076192,-3.33739031\H,0,-2.60862974,-1.75549695,-3.26751243\H,0,-
 1.47646146,-2.36750684,-2.07165071\H,0,0.4157342,0.51539066,-3.5906339
 2\H,0,-0.67072928,-0.53226666,-4.50884988\P,0,-1.6570918,1.05342876,-1

 Normal termination of Gaussian 16 at Wed Apr  9 19:34:57 2025.
