 Gaussian 16, Revision C.01,

 ----------------------------------------------------------------------
 #t hf aug-cc-pvdz symm=none int=(grid=ultrafine) guess=(read,tcheck) s
 table=(opt,rrhf)
 ----------------------------------------------------------------------
 -----
 title
 -----
 Symbolic Z-matrix:
 Charge =  0 Multiplicity = 1

 SCF Done:  E(RHF) =  -936.860859906     A.U. after   11 cycles
 Normal termination of Gaussian 16 at Wed Apr  9 19:29:46 2025.
 Gaussian 16:  ES64L-G16RevC.01  3-Jul-2019

 ----------------------------------------------------------------------
 #t hf aug-cc-pvdz iop(5/13=1,5/36=2,99/5=2) pseudo=read geom=check gue
 ss=(read,tcheck) scf=(maxcycle=1)
 ----------------------------------------------------------------------
 -----
 title
 -----
 Structure from the checkpoint file:  "HB300SPXx10_1326_4.37_1.05_hydrogenchloride_dimethylsulfide_dimer_mol1.chk"
 Charge =  0 Multiplicity = 1

                         Standard orientation:
 ---------------------------------------------------------------------
 Center     Atomic      Atomic             Coordinates (Angstroms)
 Number     Number       Type             X           Y           Z
 ---------------------------------------------------------------------
      1          1           0       -1.111698   -0.000003   -0.436214
      2         17           0       -2.347762   -0.000002    0.038963
      3          1           0        0.453981   -1.354202    1.225819
      4          1           0        2.225776   -1.365704    1.008608
      5          1           0        1.186645   -2.299390   -0.082255
      6          1           0        1.186636    2.299393   -0.082256
      7          1           0        2.225767    1.365710    1.008611
      8          1           0        0.453971    1.354203    1.225816
      9          6           0        1.264380   -1.385386    0.500620
     10         16           0        1.132398    0.000000   -0.658621
     11          6           0        1.264372    1.385388    0.500619
 ---------------------------------------------------------------------

 SCF Done:  E(RHF) =  -937.092077528     A.U. after    2 cycles

 The electronic state is 1-A.
 Alpha  occ. eigenvalues -- -105.55630 -93.96173 -11.27527 -11.27498 -10.60385
 Alpha  occ. eigenvalues --   -8.24279  -7.77347  -7.77002  -7.77000  -6.22100
 Alpha  occ. eigenvalues --   -6.21944  -6.21749  -1.10519  -1.04316  -0.97435
 Alpha  occ. eigenvalues --   -0.84424  -0.64019  -0.62570  -0.60150  -0.59566
 Alpha  occ. eigenvalues --   -0.58846  -0.52109  -0.46288  -0.46251  -0.46107
 Alpha  occ. eigenvalues --   -0.36719
 Alpha virt. eigenvalues --    0.03333   0.03773   0.04752   0.05393   0.06930
 Alpha virt. eigenvalues --    0.07536   0.07972   0.09547   0.12625   0.12760
 Alpha virt. eigenvalues --    0.15073   0.15334   0.15357   0.15882   0.16762

 Mulliken charges:
               1
     1  H    0.363968
     2  Cl  -0.245020
     3  H    0.120299
     4  H    0.169235
     5  H    0.164103
     6  H    0.164104
     7  H    0.169235
     8  H    0.120300
     9  C   -0.567167
    10  S    0.108111
    11  C   -0.567168
 Sum of Mulliken charges =  -0.00000

 Dipole moment (field-independent basis, Debye):
    X=              2.6297    Y=              0.0000    Z=              1.3005  Tot=              2.9337

 Test job not archived.
 1\1\GINC-SE168\SP\RHF\Aug-CC-pVDZ\C2H7Cl1S1\OHZDE\09-Apr-2025\0\\#t hf
  aug-cc-pvdz iop(5/13=1,5/36=2,99/5=2) pseudo=read geom=check guess=(r
 ead,tcheck) scf=(maxcycle=1)\\title\\0,1\H,0,-0.09169332,-0.01707414,-
 1.03147385\Cl,0,0.64323048,-0.44620369,-2.04605842\H,0,1.51608184,0.81
 403496,0.91065923\H,0,0.86411847,1.2504906,2.5140997\H,0,0.62541215,2.
 33066211,1.12925528\H,0,-1.42726946,-1.77696108,1.37972501\H,0,-0.3550
 5224,-1.18920426,2.66286216\H,0,0.30717604,-1.60510663,1.05816543\C,0,
 0.69474552,1.29170678,1.44063013\S,0,-0.87892184,0.50124643,1.0171956\

 Normal termination of Gaussian 16 at Wed Apr  9 19:29:49 2025.
