 Gaussian 16, Revision C.01,

 ----------------------------------------------------------------------
 #t hf aug-cc-pvdz symm=none int=(grid=ultrafine) guess=(read,tcheck) s
 table=(opt,rrhf)
 ----------------------------------------------------------------------
 -----
 title
 -----
 Symbolic Z-matrix:
 Charge =  0 Multiplicity = 1

 SCF Done:  E(RHF) =  -747.041171337     A.U. after   14 cycles
 Normal termination of Gaussian 16 at Wed Apr  9 19:33:36 2025.
 Gaussian 16:  ES64L-G16RevC.01  3-Jul-2019

 ----------------------------------------------------------------------
 #t hf aug-cc-pvdz iop(5/13=1,5/36=2,99/5=2) pseudo=read geom=check gue
 ss=(read,tcheck) scf=(maxcycle=1)
 ----------------------------------------------------------------------
 -----
 title
 -----
 Structure from the checkpoint file:  "HB300SPXx10_1452_5.08_0.85_methylcyanate_phosphineF2_dimer_mol1.chk"
 Charge =  0 Multiplicity = 1

                         Standard orientation:
 ---------------------------------------------------------------------
 Center     Atomic      Atomic             Coordinates (Angstroms)
 Number     Number       Type             X           Y           Z
 ---------------------------------------------------------------------
      1          1           0       -2.585385   -1.061949    1.324304
      2          1           0       -3.172218   -1.791470   -0.198169
      3          1           0       -1.413059   -1.645984    0.102658
      4          6           0       -2.390230   -1.202725    0.264693
      5          8           0       -2.447920    0.095096   -0.409089
      6          6           0       -1.570525    0.949194   -0.041129
      7          7           0       -0.785016    1.739187    0.264630
      8         15           0        1.531910    0.326718   -0.160391
      9          9           0        0.587795   -0.978264   -0.080107
     10          9           0        2.933231   -0.414344    0.086819
     11          1           0        1.345790    0.718215    1.195585
 ---------------------------------------------------------------------

 SCF Done:  E(RHF) =  -747.468459096     A.U. after    2 cycles

 The electronic state is 1-A.
 Alpha  occ. eigenvalues --  -84.39941 -26.48230 -26.46783 -20.65492 -15.52150
 Alpha  occ. eigenvalues --  -11.36184 -11.33908  -6.85590  -4.38412  -4.37810
 Alpha  occ. eigenvalues --   -4.36672  -1.61880  -1.58518  -1.57194  -1.25254
 Alpha  occ. eigenvalues --   -1.01965  -0.87976  -0.81045  -0.72693  -0.71096
 Alpha  occ. eigenvalues --   -0.70776  -0.69936  -0.68517  -0.64405  -0.63653
 Alpha  occ. eigenvalues --   -0.61695  -0.59696  -0.59321  -0.56502  -0.50342
 Alpha  occ. eigenvalues --   -0.47940  -0.37263
 Alpha virt. eigenvalues --    0.02843   0.04490   0.05446   0.05697   0.07344
 Alpha virt. eigenvalues --    0.09309   0.09604   0.10397   0.11370   0.11758
 Alpha virt. eigenvalues --    0.13464   0.14274   0.14963   0.15470   0.15851

 Mulliken charges:
               1
     1  H    0.148069
     2  H    0.038880
     3  H    0.184756
     4  C    0.392942
     5  O   -1.047901
     6  C   -0.535457
     7  N    0.853847
     8  P    1.439727
     9  F   -0.882234
    10  F   -0.749766
    11  H    0.157137
 Sum of Mulliken charges =  -0.00000

 Dipole moment (field-independent basis, Debye):
    X=             -3.4078    Y=             -2.9050    Z=              0.4594  Tot=              4.5014

 Test job not archived.
 1\1\GINC-SE207\SP\RHF\Aug-CC-pVDZ\C2H4F2N1O1P1\OHZDE\09-Apr-2025\0\\#t
  hf aug-cc-pvdz iop(5/13=1,5/36=2,99/5=2) pseudo=read geom=check guess
 =(read,tcheck) scf=(maxcycle=1)\\title\\0,1\H,0,-2.89287834,1.38344137
 ,-2.41875402\H,0,-2.88368966,0.15494314,-3.71690786\H,0,-2.33807438,-0
 .28314113,-2.0686702\C,0,-2.39546429,0.50243917,-2.8151059\O,0,-1.0419
 8507,0.86597867,-3.23651367\C,0,-0.26338211,1.27221362,-2.30729377\N,0
 ,0.4658792,1.6354549,-1.48824768\P,0,0.33691728,-0.47574979,0.26390597
 \F,0,-1.05068497,-0.82799143,-0.47856345\F,0,0.08965714,-1.34363334,1.

 Normal termination of Gaussian 16 at Wed Apr  9 19:33:40 2025.
