 Gaussian 16, Revision C.01,

 ----------------------------------------------------------------------
 #t hf aug-cc-pvdz symm=none int=(grid=ultrafine) guess=(read,tcheck) s
 table=(opt,rrhf)
 ----------------------------------------------------------------------
 -----
 title
 -----
 Symbolic Z-matrix:
 Charge =  0 Multiplicity = 1

 SCF Done:  E(RHF) =  -742.486190349     A.U. after   14 cycles
 Normal termination of Gaussian 16 at Wed Apr  9 19:27:32 2025.
 Gaussian 16:  ES64L-G16RevC.01  3-Jul-2019

 ----------------------------------------------------------------------
 #t hf aug-cc-pvdz iop(5/13=1,5/36=2,99/5=2) pseudo=read geom=check gue
 ss=(read,tcheck) scf=(maxcycle=1)
 ----------------------------------------------------------------------
 -----
 title
 -----
 Structure from the checkpoint file:  "HB300SPXx10_1136_4.17_1.05_aceticacid_thioacetone_dimer_mol1.chk"
 Charge =  0 Multiplicity = 1

                         Standard orientation:
 ---------------------------------------------------------------------
 Center     Atomic      Atomic             Coordinates (Angstroms)
 Number     Number       Type             X           Y           Z
 ---------------------------------------------------------------------
      1          6           0       -1.871271    1.716928    0.000000
      2          8           0       -2.217849    0.559481    0.000000
      3          8           0       -0.590234    2.105146    0.000000
      4          1           0        0.000000    1.317516    0.000000
      5          6           0       -2.811493    2.891038    0.000000
      6          1           0       -3.837653    2.540816    0.000000
      7          1           0       -2.627300    3.510191    0.876954
      8          1           0       -2.627300    3.510191   -0.876954
      9          1           0        3.417518   -2.509243    0.000000
     10          1           0        2.227288   -3.499418    0.874412
     11          1           0        2.227288   -3.499418   -0.874412
     12          1           0       -0.713758   -1.305010    0.000000
     13          1           0       -0.228230   -2.776886   -0.872921
     14          6           0        2.393011   -2.865226    0.000000
     15          6           0        1.404919   -1.739735    0.000000
     16         16           0        1.897157   -0.184893    0.000000
     17          6           0       -0.031744   -2.148105    0.000000
     18          1           0       -0.228230   -2.776886    0.872921
 ---------------------------------------------------------------------

 SCF Done:  E(RHF) =  -742.901522043     A.U. after    2 cycles

 The electronic state is 1-A'.
 Alpha  occ. eigenvalues --  -93.93225 -20.58024 -20.52591 -11.38581 -11.33983
 Alpha  occ. eigenvalues --  -11.25734 -11.24709 -11.24557  -8.21546  -6.19365
 Alpha  occ. eigenvalues --   -6.19165  -6.18967  -1.53285  -1.43894  -1.13986
 Alpha  occ. eigenvalues --   -1.02242  -0.98189  -0.97381  -0.81686  -0.73710
 Alpha  occ. eigenvalues --   -0.70027  -0.67396  -0.64079  -0.62718  -0.62604
 Alpha  occ. eigenvalues --   -0.62193  -0.57368  -0.56686  -0.56246  -0.55079
 Alpha  occ. eigenvalues --   -0.54168  -0.51126  -0.46212  -0.43526  -0.40087
 Alpha  occ. eigenvalues --   -0.35665
 Alpha virt. eigenvalues --    0.03226   0.03609   0.04069   0.04726   0.05896
 Alpha virt. eigenvalues --    0.05937   0.06230   0.06246   0.07716   0.07848
 Alpha virt. eigenvalues --    0.08876   0.09643   0.12222   0.12648   0.13196

 Mulliken charges:
               1
     1  C    1.919344
     2  O   -1.250411
     3  O   -1.392898
     4  H    0.669296
     5  C   -0.557881
     6  H    0.172939
     7  H    0.229543
     8  H    0.229543
     9  H    0.169926
    10  H    0.254075
    11  H    0.254075
    12  H   -0.120973
    13  H    0.320283
    14  C   -0.477608
    15  C   -0.577474
    16  S    0.172429
    17  C   -0.334492
    18  H    0.320283
 Sum of Mulliken charges =  -0.00000

 Dipole moment (field-independent basis, Debye):
    X=              0.0621    Y=             -2.0402    Z=             -0.0000  Tot=              2.0412

 Test job not archived.
 1\1\GINC-SE138\SP\RHF\Aug-CC-pVDZ\C5H10O2S1\OHZDE\09-Apr-2025\0\\#t hf
  aug-cc-pvdz iop(5/13=1,5/36=2,99/5=2) pseudo=read geom=check guess=(r
 ead,tcheck) scf=(maxcycle=1)\\title\\0,1\C,0,0.15920132,2.45664609,0.\
 O,0,1.21885316,1.87618237,0.\O,0,-1.02533188,1.83322707,0.\H,0,-0.8922
 641,0.85801947,0.\C,0,0.00380934,3.95277518,0.\H,0,0.98023034,4.424223
 4,0.\H,0,-0.56217465,4.2641268,-0.87695442\H,0,-0.56217465,4.2641268,0
 .87695442\H,0,-0.63711584,-4.26627736,0.\H,0,0.90557428,-4.13512053,-0
 .87441231\H,0,0.90557428,-4.13512053,0.87441231\H,0,1.45777554,-0.5074

 Normal termination of Gaussian 16 at Wed Apr  9 19:27:39 2025.
