 Gaussian 16, Revision C.01,

 ----------------------------------------------------------------------
 #t hf aug-cc-pvdz symm=none int=(grid=ultrafine) guess=(read,tcheck) s
 table=(opt,rrhf)
 ----------------------------------------------------------------------
 -----
 title
 -----
 Symbolic Z-matrix:
 Charge =  0 Multiplicity = 1

 SCF Done:  E(RHF) =  -601.596174445     A.U. after   14 cycles
 Normal termination of Gaussian 16 at Wed Apr  9 19:23:43 2025.
 Gaussian 16:  ES64L-G16RevC.01  3-Jul-2019

 ----------------------------------------------------------------------
 #t hf aug-cc-pvdz iop(5/13=1,5/36=2,99/5=2) pseudo=read geom=check gue
 ss=(read,tcheck) scf=(maxcycle=1)
 ----------------------------------------------------------------------
 -----
 title
 -----
 Structure from the checkpoint file:  "HB300SPXx10_104_1.11_0.95_sulfane_methylazide_dimer_mol1.chk"
 Charge =  0 Multiplicity = 1

                         Standard orientation:
 ---------------------------------------------------------------------
 Center     Atomic      Atomic             Coordinates (Angstroms)
 Number     Number       Type             X           Y           Z
 ---------------------------------------------------------------------
      1          1           0       -1.275924   -0.528457   -0.012338
      2          1           0       -2.762055   -0.433859    1.239178
      3         16           0       -2.599099   -0.294216   -0.084488
      4          1           0        1.213550    1.947762   -0.909302
      5          1           0        1.260206    1.984227    0.870434
      6          1           0       -0.290900    1.842533    0.022592
      7          6           0        0.755727    1.559575    0.001481
      8          7           0        0.789769    0.087848    0.031057
      9          7           0        1.900688   -0.429024    0.004135
     10          7           0        2.867592   -1.010567   -0.016283
 ---------------------------------------------------------------------

 SCF Done:  E(RHF) =  -601.863248278     A.U. after    2 cycles

 The electronic state is 1-A.
 Alpha  occ. eigenvalues --  -93.94768 -15.73032 -15.61570 -15.55656 -11.29218
 Alpha  occ. eigenvalues --   -8.22896  -6.20775  -6.20659  -6.20421  -1.52552
 Alpha  occ. eigenvalues --   -1.34034  -1.02957  -1.00543  -0.78622  -0.77283
 Alpha  occ. eigenvalues --   -0.76546  -0.72575  -0.61748  -0.60365  -0.58246
 Alpha  occ. eigenvalues --   -0.51183  -0.48149  -0.43909  -0.37997
 Alpha virt. eigenvalues --    0.03109   0.04892   0.05288   0.05690   0.06723
 Alpha virt. eigenvalues --    0.07851   0.09134   0.09872   0.10663   0.11242
 Alpha virt. eigenvalues --    0.12967   0.13814   0.15503   0.16146   0.17317

 Mulliken charges:
               1
     1  H    0.398046
     2  H    0.249565
     3  S   -0.587396
     4  H    0.160344
     5  H    0.157684
     6  H    0.053362
     7  C   -0.202315
     8  N    0.438387
     9  N   -1.628736
    10  N    0.961057
 Sum of Mulliken charges =  -0.00000

 Dipole moment (field-independent basis, Debye):
    X=              1.0703    Y=              2.0320    Z=              0.8344  Tot=              2.4435

 Test job not archived.
 1\1\GINC-SE131\SP\RHF\Aug-CC-pVDZ\C1H5N3S1\OHZDE\09-Apr-2025\0\\#t hf
 aug-cc-pvdz iop(5/13=1,5/36=2,99/5=2) pseudo=read geom=check guess=(re
 ad,tcheck) scf=(maxcycle=1)\\title\\0,1\H,0,1.21774303,0.78814331,-0.0
 7896573\H,0,1.90622629,2.11329938,-1.32547278\S,0,1.84165876,1.9773473
 1,0.00700442\H,0,-2.14389955,0.23474188,1.15666698\H,0,-2.39474106,0.3
 4085538,-0.60310165\H,0,-1.25193521,1.43250477,0.20134869\C,0,-1.65990
 952,0.42777198,0.19838295\N,0,-0.52314198,-0.48249011,-0.01886109\N,0,
 -0.78492983,-1.67948324,-0.04523899\N,0,-0.9092704,-2.80029622,-0.0880

 Normal termination of Gaussian 16 at Wed Apr  9 19:23:46 2025.
