 Gaussian 16, Revision C.01,

 ----------------------------------------------------------------------
 #t hf aug-cc-pvdz symm=none int=(grid=ultrafine) guess=(read,tcheck) s
 table=(opt,rrhf)
 ----------------------------------------------------------------------
 -----
 title
 -----
 Symbolic Z-matrix:
 Charge =  0 Multiplicity = 1

 SCF Done:  E(RHF) =  -897.823340807     A.U. after   11 cycles
 Normal termination of Gaussian 16 at Wed Apr  9 19:29:43 2025.
 Gaussian 16:  ES64L-G16RevC.01  3-Jul-2019

 ----------------------------------------------------------------------
 #t hf aug-cc-pvdz iop(5/13=1,5/36=2,99/5=2) pseudo=read geom=check gue
 ss=(read,tcheck) scf=(maxcycle=1)
 ----------------------------------------------------------------------
 -----
 title
 -----
 Structure from the checkpoint file:  "HB300SPXx10_1340_4.38_2.00_hydrogenchloride_methanethiol_dimer_mol1.chk"
 Charge =  0 Multiplicity = 1

                         Standard orientation:
 ---------------------------------------------------------------------
 Center     Atomic      Atomic             Coordinates (Angstroms)
 Number     Number       Type             X           Y           Z
 ---------------------------------------------------------------------
      1          1           0       -2.208091   -0.351096   -0.091763
      2         17           0       -3.458020    0.027308    0.004837
      3          1           0        1.554742    1.556103    0.557241
      4          1           0        2.382400    1.514449   -1.005081
      5          1           0        3.337903    1.460938    0.483644
      6          1           0        2.344822   -0.917265    1.231648
      7          6           0        2.406838    1.152569    0.018979
      8         16           0        2.308346   -0.665174   -0.085737
 ---------------------------------------------------------------------

 SCF Done:  E(RHF) =  -898.008507949     A.U. after    2 cycles

 The electronic state is 1-A.
 Alpha  occ. eigenvalues -- -105.58296 -93.95526 -11.27504 -10.62986  -8.23618
 Alpha  occ. eigenvalues --   -7.79961  -7.79568  -7.79566  -6.21476  -6.21328
 Alpha  occ. eigenvalues --   -6.21095  -1.06769  -1.06671  -0.89209  -0.62402
 Alpha  occ. eigenvalues --   -0.62342  -0.60752  -0.54322  -0.48325  -0.48320
 Alpha  occ. eigenvalues --   -0.47344  -0.37123
 Alpha virt. eigenvalues --    0.03142   0.04149   0.04508   0.05614   0.07003
 Alpha virt. eigenvalues --    0.10300   0.11364   0.12271   0.12802   0.13709
 Alpha virt. eigenvalues --    0.14908   0.15418   0.16153   0.16413   0.17460

 Mulliken charges:
               1
     1  H    0.193987
     2  Cl  -0.192834
     3  H    0.141123
     4  H    0.166371
     5  H    0.137688
     6  H    0.331246
     7  C   -0.672425
     8  S   -0.105156
 Sum of Mulliken charges =  -0.00000

 Dipole moment (field-independent basis, Debye):
    X=              1.5053    Y=              1.1115    Z=              0.8165  Tot=              2.0416

 Test job not archived.
 1\1\GINC-SE231\SP\RHF\Aug-CC-pVDZ\C1H5Cl1S1\OHZDE\09-Apr-2025\0\\#t hf
  aug-cc-pvdz iop(5/13=1,5/36=2,99/5=2) pseudo=read geom=check guess=(r
 ead,tcheck) scf=(maxcycle=1)\\title\\0,1\H,0,-0.71323053,0.36081391,-0
 .38963987\Cl,0,-0.97574618,1.50432633,-0.9712843\H,0,2.6438253,-1.2244
 2301,1.71623911\H,0,3.16893068,-2.63025324,0.78055369\H,0,3.40118023,-
 2.62090445,2.53501155\H,0,0.76754153,-2.60188316,3.04994119\C,0,2.7480
 7349,-2.30499235,1.72783228\S,0,1.11936943,-3.11402021,1.86069132\\Ver
 sion=ES64L-G16RevC.01\State=1-A\HF=-898.0085079\RMSD=4.444e-03\Dipole=

 Normal termination of Gaussian 16 at Wed Apr  9 19:29:45 2025.
