 Gaussian 16, Revision C.01,

 ----------------------------------------------------------------------
 #t hf aug-cc-pvdz symm=none int=(grid=ultrafine) guess=(read,tcheck) s
 table=(opt,rrhf)
 ----------------------------------------------------------------------
 -----
 title
 -----
 Symbolic Z-matrix:
 Charge =  0 Multiplicity = 1

 SCF Done:  E(RHF) =  -742.485361670     A.U. after   14 cycles
 Normal termination of Gaussian 16 at Wed Apr  9 19:27:32 2025.
 Gaussian 16:  ES64L-G16RevC.01  3-Jul-2019

 ----------------------------------------------------------------------
 #t hf aug-cc-pvdz iop(5/13=1,5/36=2,99/5=2) pseudo=read geom=check gue
 ss=(read,tcheck) scf=(maxcycle=1)
 ----------------------------------------------------------------------
 -----
 title
 -----
 Structure from the checkpoint file:  "HB300SPXx10_1135_4.17_1.00_aceticacid_thioacetone_dimer_mol1.chk"
 Charge =  0 Multiplicity = 1

                         Standard orientation:
 ---------------------------------------------------------------------
 Center     Atomic      Atomic             Coordinates (Angstroms)
 Number     Number       Type             X           Y           Z
 ---------------------------------------------------------------------
      1          6           0       -1.885506    1.604415    0.000000
      2          8           0       -2.186388    0.434257    0.000000
      3          8           0       -0.620692    2.042613    0.000000
      4          1           0        0.000000    1.278755    0.000000
      5          6           0       -2.871085    2.740717    0.000000
      6          1           0       -3.882709    2.350490    0.000000
      7          1           0       -2.711335    3.366623    0.876954
      8          1           0       -2.711335    3.366623   -0.876954
      9          1           0        3.472001   -2.342980    0.000000
     10          1           0        2.321550   -3.379107    0.874412
     11          1           0        2.321550   -3.379107   -0.874412
     12          1           0       -0.703357   -1.301822    0.000000
     13          1           0       -0.160434   -2.753507   -0.872921
     14          6           0        2.462254   -2.738899    0.000000
     15          6           0        1.430750   -1.653056    0.000000
     16         16           0        1.861584   -0.080093    0.000000
     17          6           0        0.011222   -2.117499    0.000000
     18          1           0       -0.160434   -2.753507    0.872921
 ---------------------------------------------------------------------

 SCF Done:  E(RHF) =  -742.900973472     A.U. after    2 cycles

 The electronic state is 1-A'.
 Alpha  occ. eigenvalues --  -93.93264 -20.57690 -20.52502 -11.38489 -11.34057
 Alpha  occ. eigenvalues --  -11.25768 -11.24560 -11.24472  -8.21610  -6.19428
 Alpha  occ. eigenvalues --   -6.19226  -6.19034  -1.53125  -1.43796  -1.14039
 Alpha  occ. eigenvalues --   -1.02164  -0.98284  -0.97351  -0.81591  -0.73726
 Alpha  occ. eigenvalues --   -0.70077  -0.67292  -0.63957  -0.62749  -0.62594
 Alpha  occ. eigenvalues --   -0.62151  -0.57294  -0.56650  -0.56210  -0.54955
 Alpha  occ. eigenvalues --   -0.54102  -0.51141  -0.46099  -0.43417  -0.40172
 Alpha  occ. eigenvalues --   -0.35797
 Alpha virt. eigenvalues --    0.03225   0.03591   0.04084   0.04722   0.05920
 Alpha virt. eigenvalues --    0.05947   0.06195   0.06238   0.07742   0.07861
 Alpha virt. eigenvalues --    0.08872   0.09651   0.12302   0.12709   0.13228

 Mulliken charges:
               1
     1  C    1.917289
     2  O   -1.267605
     3  O   -1.420317
     4  H    0.717453
     5  C   -0.550447
     6  H    0.171124
     7  H    0.230110
     8  H    0.230110
     9  H    0.169752
    10  H    0.254202
    11  H    0.254202
    12  H   -0.142995
    13  H    0.327115
    14  C   -0.479196
    15  C   -0.593898
    16  S    0.165515
    17  C   -0.309529
    18  H    0.327115
 Sum of Mulliken charges =  -0.00000

 Dipole moment (field-independent basis, Debye):
    X=              0.1761    Y=             -2.0756    Z=             -0.0000  Tot=              2.0830

 Test job not archived.
 1\1\GINC-SE131\SP\RHF\Aug-CC-pVDZ\C5H10O2S1\OHZDE\09-Apr-2025\0\\#t hf
  aug-cc-pvdz iop(5/13=1,5/36=2,99/5=2) pseudo=read geom=check guess=(r
 ead,tcheck) scf=(maxcycle=1)\\title\\0,1\C,0,0.15920132,2.45664609,0.\
 O,0,1.21885316,1.87618237,0.\O,0,-1.02533188,1.83322707,0.\H,0,-0.8922
 641,0.85801947,0.\C,0,0.00380934,3.95277518,0.\H,0,0.98023034,4.424223
 4,0.\H,0,-0.56217465,4.2641268,-0.87695442\H,0,-0.56217465,4.2641268,0
 .87695442\H,0,-0.62305952,-4.15189936,0.\H,0,0.9196306,-4.02074254,-0.
 87441231\H,0,0.9196306,-4.02074254,0.87441231\H,0,1.47183186,-0.393036

 Normal termination of Gaussian 16 at Wed Apr  9 19:27:38 2025.
