 Gaussian 16, Revision C.01,

 ----------------------------------------------------------------------
 #t hf aug-cc-pvdz symm=none int=(grid=ultrafine) guess=(read,tcheck) s
 table=(opt,rrhf)
 ----------------------------------------------------------------------
 -----
 title
 -----
 Symbolic Z-matrix:
 Charge =  0 Multiplicity = 1

 SCF Done:  E(RHF) =  -783.960083643     A.U. after   15 cycles
 Normal termination of Gaussian 16 at Wed Apr  9 19:33:34 2025.
 Gaussian 16:  ES64L-G16RevC.01  3-Jul-2019

 ----------------------------------------------------------------------
 #t hf aug-cc-pvdz iop(5/13=1,5/36=2,99/5=2) pseudo=read geom=check gue
 ss=(read,tcheck) scf=(maxcycle=1)
 ----------------------------------------------------------------------
 -----
 title
 -----
 Structure from the checkpoint file:  "HB300SPXx10_1461_5.09_0.80_nitromethane_phosphineF2_dimer_mol1.chk"
 Charge =  0 Multiplicity = 1

                         Standard orientation:
 ---------------------------------------------------------------------
 Center     Atomic      Atomic             Coordinates (Angstroms)
 Number     Number       Type             X           Y           Z
 ---------------------------------------------------------------------
      1          1           0        1.314390    1.726649   -0.083160
      2          1           0        2.535498    1.202440    1.101044
      3          1           0        2.912093    1.169493   -0.665196
      4          6           0        2.152514    1.058995    0.097798
      5          7           0        1.599288   -0.325583    0.011381
      6          8           0        1.739196   -0.929088   -1.033361
      7          8           0        1.005283   -0.745239    0.993754
      8         15           0       -1.412234   -0.181361    0.394519
      9          9           0       -2.778240   -0.065970   -0.429896
     10          9           0       -0.647064    1.076631   -0.254572
     11          1           0       -0.816657   -1.154384   -0.459857
 ---------------------------------------------------------------------

 SCF Done:  E(RHF) =  -784.421168836     A.U. after    2 cycles

 The electronic state is 1-A.
 Alpha  occ. eigenvalues --  -84.40077 -26.48583 -26.47063 -20.61922 -20.60769
 Alpha  occ. eigenvalues --  -15.80728 -11.32176  -6.85764  -4.38655  -4.37976
 Alpha  occ. eigenvalues --   -4.36853  -1.69822  -1.62371  -1.57689  -1.53464
 Alpha  occ. eigenvalues --   -1.14058  -0.91132  -0.88323  -0.79483  -0.79209
 Alpha  occ. eigenvalues --   -0.77870  -0.71337  -0.70021  -0.69171  -0.64773
 Alpha  occ. eigenvalues --   -0.64182  -0.62948  -0.60409  -0.57522  -0.51378
 Alpha  occ. eigenvalues --   -0.50834  -0.47700  -0.37427
 Alpha virt. eigenvalues --    0.02990   0.03900   0.05015   0.05775   0.06478
 Alpha virt. eigenvalues --    0.08055   0.09680   0.09836   0.10740   0.13093
 Alpha virt. eigenvalues --    0.13959   0.15189   0.16419   0.17307   0.18518

 Mulliken charges:
               1
     1  H    0.252371
     2  H    0.166136
     3  H    0.114381
     4  C   -0.256668
     5  N    2.573442
     6  O   -1.359079
     7  O   -1.408526
     8  P    1.490741
     9  F   -0.782183
    10  F   -0.876422
    11  H    0.085807
 Sum of Mulliken charges =  -0.00000

 Dipole moment (field-independent basis, Debye):
    X=              2.7335    Y=              2.0189    Z=              0.6298  Tot=              3.4561

 Test job not archived.
 1\1\GINC-SE174\SP\RHF\Aug-CC-pVDZ\C1H4F2N1O2P1\OHZDE\09-Apr-2025\0\\#t
  hf aug-cc-pvdz iop(5/13=1,5/36=2,99/5=2) pseudo=read geom=check guess
 =(read,tcheck) scf=(maxcycle=1)\\title\\0,1\H,0,0.49481138,0.55069733,
 -2.50359179\H,0,-1.08891031,0.71291216,-3.29967626\H,0,-0.00441746,2.1
 4812453,-3.13671373\C,0,-0.34098337,1.21704881,-2.69950341\N,0,-0.9468
 7558,1.51662809,-1.36768821\O,0,-0.63929751,2.55888018,-0.82511637\O,0
 ,-1.68734525,0.66720154,-0.89420145\P,0,-0.06888667,-0.63432881,0.5917
 4542\F,0,1.05958612,-0.95697528,1.67866624\F,0,0.8991269,-0.25561437,-

 Normal termination of Gaussian 16 at Wed Apr  9 19:33:38 2025.
