 Gaussian 16, Revision C.01,

 ----------------------------------------------------------------------
 #t hf aug-cc-pvdz symm=none int=(grid=ultrafine) guess=(read,tcheck) s
 table=(opt,rrhf)
 ----------------------------------------------------------------------
 -----
 title
 -----
 Symbolic Z-matrix:
 Charge =  0 Multiplicity = 1

 SCF Done:  E(RHF) =  -591.460336325     A.U. after   13 cycles
 Normal termination of Gaussian 16 at Wed Apr  9 19:22:59 2025.
 Gaussian 16:  ES64L-G16RevC.01  3-Jul-2019

 ----------------------------------------------------------------------
 #t hf aug-cc-pvdz iop(5/13=1,5/36=2,99/5=2) pseudo=read geom=check gue
 ss=(read,tcheck) scf=(maxcycle=1)
 ----------------------------------------------------------------------
 -----
 title
 -----
 Structure from the checkpoint file:  "HB300SPXx10_1016_4.05_1.05_ethyne_thioacetone_dimer_mol1.chk"
 Charge =  0 Multiplicity = 1

                         Standard orientation:
 ---------------------------------------------------------------------
 Center     Atomic      Atomic             Coordinates (Angstroms)
 Number     Number       Type             X           Y           Z
 ---------------------------------------------------------------------
      1          6           0        2.909914    0.994436    0.000000
      2          1           0        2.247986    0.157394    0.000000
      3          6           0        3.634682    1.946702    0.000000
      4          1           0        4.283074    2.786721    0.000000
      5          1           0       -2.914555   -1.791782    0.000000
      6          1           0       -3.272308   -0.286099    0.874719
      7          1           0       -3.272308   -0.286099   -0.874719
      8          1           0        0.000000    1.365536    0.000000
      9          1           0       -1.527796    1.594980   -0.874314
     10          6           0       -2.777514   -0.715975    0.000000
     11          6           0       -1.327310   -0.338006    0.000000
     12         16           0       -0.143712   -1.454573    0.000000
     13          6           0       -1.059256    1.135765    0.000000
     14          1           0       -1.527796    1.594980    0.874314
 ---------------------------------------------------------------------

 SCF Done:  E(RHF) =  -591.727042644     A.U. after    2 cycles

 The electronic state is 1-A'.
 Alpha  occ. eigenvalues --  -93.92844 -11.33652 -11.25622 -11.25493 -11.24253
 Alpha  occ. eigenvalues --  -11.23897  -8.21137  -6.18954  -6.18764  -6.18542
 Alpha  occ. eigenvalues --   -1.13832  -1.02704  -0.97993  -0.97580  -0.75982
 Alpha  occ. eigenvalues --   -0.73706  -0.68252  -0.62749  -0.62599  -0.62458
 Alpha  occ. eigenvalues --   -0.57002  -0.54413  -0.51086  -0.41269  -0.41226
 Alpha  occ. eigenvalues --   -0.39820  -0.35021
 Alpha virt. eigenvalues --    0.03051   0.03607   0.03616   0.04817   0.05800
 Alpha virt. eigenvalues --    0.06292   0.06662   0.07445   0.08744   0.09778
 Alpha virt. eigenvalues --    0.10329   0.11645   0.12620   0.12880   0.13985

 Mulliken charges:
               1
     1  C    0.458336
     2  H   -0.260503
     3  C    0.060612
     4  H   -0.238508
     5  H    0.174867
     6  H    0.253109
     7  H    0.253109
     8  H   -0.007002
     9  H    0.292995
    10  C   -0.478831
    11  C   -0.526302
    12  S    0.138520
    13  C   -0.413396
    14  H    0.292995
 Sum of Mulliken charges =   0.00000

 Dipole moment (field-independent basis, Debye):
    X=             -2.8521    Y=              2.1654    Z=             -0.0000  Tot=              3.5809

 Test job not archived.
 1\1\GINC-SE125\SP\RHF\Aug-CC-pVDZ\C5H8S1\OHZDE\09-Apr-2025\0\\#t hf au
 g-cc-pvdz iop(5/13=1,5/36=2,99/5=2) pseudo=read geom=check guess=(read
 ,tcheck) scf=(maxcycle=1)\\title\\0,1\C,0,-0.20751211,-2.93011645,0.\H
 ,0,-0.70775465,-1.98748922,0.\C,0,0.37296237,-3.97660953,0.\H,0,0.8813
 7254,-4.90804053,0.\H,0,-0.41661984,3.52307823,0.\H,0,1.10583326,3.245
 21909,0.87471889\H,0,1.10583326,3.24521909,-0.87471889\H,0,1.30231114,
 -0.41501211,0.\H,0,2.12670014,0.89158153,-0.87431367\C,0,0.51328645,2.
 96503387,0.\C,0,0.27624433,1.48524946,0.\S,0,-1.2219964,0.85050533,0.\

 Normal termination of Gaussian 16 at Wed Apr  9 19:23:05 2025.
