 Gaussian 16, Revision C.01,

 ----------------------------------------------------------------------
 #t hf aug-cc-pvdz symm=none int=(grid=ultrafine) guess=(read,tcheck) s
 table=(opt,rrhf)
 ----------------------------------------------------------------------
 -----
 title
 -----
 Symbolic Z-matrix:
 Charge =  0 Multiplicity = 1

 SCF Done:  E(RHF) =  -742.480349102     A.U. after   14 cycles
 Normal termination of Gaussian 16 at Wed Apr  9 19:27:34 2025.
 Gaussian 16:  ES64L-G16RevC.01  3-Jul-2019

 ----------------------------------------------------------------------
 #t hf aug-cc-pvdz iop(5/13=1,5/36=2,99/5=2) pseudo=read geom=check gue
 ss=(read,tcheck) scf=(maxcycle=1)
 ----------------------------------------------------------------------
 -----
 title
 -----
 Structure from the checkpoint file:  "HB300SPXx10_1133_4.17_0.90_aceticacid_thioacetone_dimer_mol1.chk"
 Charge =  0 Multiplicity = 1

                         Standard orientation:
 ---------------------------------------------------------------------
 Center     Atomic      Atomic             Coordinates (Angstroms)
 Number     Number       Type             X           Y           Z
 ---------------------------------------------------------------------
      1          6           0       -1.906467    1.370698    0.000000
      2          8           0       -2.106038    0.179073    0.000000
      3          8           0       -0.683825    1.915598    0.000000
      4          1           0        0.000000    1.207700    0.000000
      5          6           0       -2.985733    2.418427    0.000000
      6          1           0       -3.960224    1.943002    0.000000
      7          1           0       -2.880169    3.055713    0.876954
      8          1           0       -2.880169    3.055713   -0.876954
      9          1           0        3.572282   -1.983963    0.000000
     10          1           0        2.514787   -3.114802    0.874412
     11          1           0        2.514787   -3.114802   -0.874412
     12          1           0       -0.676897   -1.304185    0.000000
     13          1           0       -0.011653   -2.704045   -0.872921
     14          6           0        2.600150   -2.464897    0.000000
     15          6           0        1.479448   -1.471376    0.000000
     16         16           0        1.773999    0.132704    0.000000
     17          6           0        0.104907   -2.055673    0.000000
     18          1           0       -0.011653   -2.704045    0.872921
 ---------------------------------------------------------------------

 SCF Done:  E(RHF) =  -742.896619622     A.U. after    2 cycles

 The electronic state is 1-A'.
 Alpha  occ. eigenvalues --  -93.93272 -20.56839 -20.52302 -11.38291 -11.34218
 Alpha  occ. eigenvalues --  -11.25831 -11.24278 -11.24134  -8.21707  -6.19520
 Alpha  occ. eigenvalues --   -6.19312  -6.19135  -1.52784  -1.43598  -1.14158
 Alpha  occ. eigenvalues --   -1.02012  -0.98519  -0.97257  -0.81486  -0.73722
 Alpha  occ. eigenvalues --   -0.70386  -0.67071  -0.63691  -0.62789  -0.62550
 Alpha  occ. eigenvalues --   -0.61998  -0.57141  -0.56535  -0.56226  -0.54674
 Alpha  occ. eigenvalues --   -0.53897  -0.51088  -0.45856  -0.43112  -0.40357
 Alpha  occ. eigenvalues --   -0.36023
 Alpha virt. eigenvalues --    0.03227   0.03556   0.04111   0.04714   0.05961
 Alpha virt. eigenvalues --    0.05968   0.06123   0.06215   0.07791   0.07886
 Alpha virt. eigenvalues --    0.08859   0.09667   0.12451   0.12808   0.13282

 Mulliken charges:
               1
     1  C    1.892035
     2  O   -1.307892
     3  O   -1.479233
     4  H    0.844471
     5  C   -0.525741
     6  H    0.166993
     7  H    0.231005
     8  H    0.231005
     9  H    0.169110
    10  H    0.254451
    11  H    0.254451
    12  H   -0.155066
    13  H    0.336352
    14  C   -0.483906
    15  C   -0.637959
    16  S    0.136901
    17  C   -0.263329
    18  H    0.336352
 Sum of Mulliken charges =  -0.00000

 Dipole moment (field-independent basis, Debye):
    X=              0.4292    Y=             -2.1175    Z=              0.0000  Tot=              2.1605

 Test job not archived.
 1\1\GINC-SE108\SP\RHF\Aug-CC-pVDZ\C5H10O2S1\OHZDE\09-Apr-2025\0\\#t hf
  aug-cc-pvdz iop(5/13=1,5/36=2,99/5=2) pseudo=read geom=check guess=(r
 ead,tcheck) scf=(maxcycle=1)\\title\\0,1\C,0,0.15920132,2.45664609,0.\
 O,0,1.21885316,1.87618237,0.\O,0,-1.02533188,1.83322707,0.\H,0,-0.8922
 641,0.85801947,0.\C,0,0.00380934,3.95277518,0.\H,0,0.98023034,4.424223
 4,0.\H,0,-0.56217465,4.2641268,-0.87695442\H,0,-0.56217465,4.2641268,0
 .87695442\H,0,-0.59494687,-3.92314337,0.\H,0,0.94774325,-3.79198655,-0
 .87441231\H,0,0.94774325,-3.79198655,0.87441231\H,0,1.49994451,-0.1642

 Normal termination of Gaussian 16 at Wed Apr  9 19:27:41 2025.
