 Gaussian 16, Revision C.01,

 ----------------------------------------------------------------------
 #t hf aug-cc-pvdz symm=none int=(grid=ultrafine) guess=(read,tcheck) s
 table=(opt,rrhf)
 ----------------------------------------------------------------------
 -----
 title
 -----
 Symbolic Z-matrix:
 Charge =  0 Multiplicity = 1

 SCF Done:  E(RHF) =  -1013.77821024     A.U. after   12 cycles
 Normal termination of Gaussian 16 at Wed Apr  9 19:31:12 2025.
 Gaussian 16:  ES64L-G16RevC.01  3-Jul-2019

 ----------------------------------------------------------------------
 #t hf aug-cc-pvdz iop(5/13=1,5/36=2,99/5=2) pseudo=read geom=check gue
 ss=(read,tcheck) scf=(maxcycle=1)
 ----------------------------------------------------------------------
 -----
 title
 -----
 Structure from the checkpoint file:  "HB300SPXx10_1366_4.41_1.05_hydrogenchloride_tetrahydrothiophene_dimer_mol1.chk"
 Charge =  0 Multiplicity = 1

                         Standard orientation:
 ---------------------------------------------------------------------
 Center     Atomic      Atomic             Coordinates (Angstroms)
 Number     Number       Type             X           Y           Z
 ---------------------------------------------------------------------
      1          1           0       -1.593944   -0.448829    0.051283
      2         17           0       -2.677986    0.295103   -0.150525
      3          1           0        1.786369   -0.088344    1.943137
      4          1           0        0.076542    0.353896    2.058972
      5          1           0        1.753365    2.106484    0.906807
      6          1           0        0.150896   -0.162222   -1.823043
      7          1           0        0.200006    1.787979    0.137407
      8          1           0        1.604684   -1.171887   -1.821336
      9          1           0        1.907564    1.490287   -1.620332
     10          1           0        2.857208    0.453483   -0.559538
     11         16           0        0.455269   -1.264156    0.304792
     12          6           0        0.897636    0.169054    1.371619
     13          6           0        1.150922    1.338315    0.422410
     14          6           0        1.841782    0.761936   -0.812487
     15          6           0        1.026120   -0.454490   -1.246727
 ---------------------------------------------------------------------

 SCF Done:  E(RHF) =  -1014.09043427     A.U. after    2 cycles

 The electronic state is 1-A.
 Alpha  occ. eigenvalues -- -105.55318 -93.95195 -11.27498 -11.27487 -11.25098
 Alpha  occ. eigenvalues --  -11.24897 -10.60070  -8.23329  -7.77031  -7.76693
 Alpha  occ. eigenvalues --   -7.76690  -6.21117  -6.21002  -6.20805  -1.15269
 Alpha  occ. eigenvalues --   -1.04115  -1.00314  -0.99912  -0.81182  -0.81137
 Alpha  occ. eigenvalues --   -0.68011  -0.66362  -0.62069  -0.60633  -0.56408
 Alpha  occ. eigenvalues --   -0.52733  -0.51417  -0.50114  -0.49968  -0.46019
 Alpha  occ. eigenvalues --   -0.45950  -0.44680  -0.36117
 Alpha virt. eigenvalues --    0.03162   0.03581   0.03914   0.04727   0.06135
 Alpha virt. eigenvalues --    0.06637   0.07043   0.07617   0.07807   0.10600
 Alpha virt. eigenvalues --    0.12406   0.13783   0.14113   0.14278   0.14560

 Mulliken charges:
               1
     1  H    0.383367
     2  Cl  -0.272935
     3  H    0.137942
     4  H    0.121185
     5  H    0.153518
     6  H    0.091691
     7  H    0.100318
     8  H    0.169995
     9  H    0.143010
    10  H    0.110117
    11  S    0.236052
    12  C   -0.422209
    13  C   -0.283631
    14  C   -0.238126
    15  C   -0.430293
 Sum of Mulliken charges =  -0.00000

 Dipole moment (field-independent basis, Debye):
    X=              3.2575    Y=              1.0785    Z=             -0.1490  Tot=              3.4346

 Test job not archived.
 1\1\GINC-SE159\SP\RHF\Aug-CC-pVDZ\C4H9Cl1S1\OHZDE\09-Apr-2025\0\\#t hf
  aug-cc-pvdz iop(5/13=1,5/36=2,99/5=2) pseudo=read geom=check guess=(r
 ead,tcheck) scf=(maxcycle=1)\\title\\0,1\H,0,-0.21838216,0.19107529,-1
 .4737198\Cl,0,-0.27626126,1.34164549,-2.13866114\H,0,-1.60302176,-1.22
 75839,1.87377996\H,0,-2.03095958,-0.14122796,0.54366618\H,0,-0.8592578
 ,0.92590772,2.71141174\H,0,1.8507151,0.04901912,0.05545028\H,0,-0.3023
 7893,1.42393063,1.11510104\H,0,2.19356357,-1.45746718,0.91909465\H,0,1
 .71793984,0.75573956,2.36644074\H,0,0.948581,-0.7509093,2.85650934\S,0

 Normal termination of Gaussian 16 at Wed Apr  9 19:31:18 2025.
