 Gaussian 16, Revision C.01,

 ----------------------------------------------------------------------
 #t hf aug-cc-pvdz symm=none int=(grid=ultrafine) guess=(read,tcheck) s
 table=(opt,rrhf)
 ----------------------------------------------------------------------
 -----
 title
 -----
 Symbolic Z-matrix:
 Charge =  0 Multiplicity = 1

 SCF Done:  E(RHF) =  -1312.01331312     A.U. after   13 cycles

 1\1\GINC-SE097\Stability\RHF\Aug-CC-pVDZ\C3H10S3\OHZDE\09-Apr-2025\0\\
 #t hf aug-cc-pvdz symm=none int=(grid=ultrafine) guess=(read,tcheck) s
 table=(opt,rrhf)\\title\\0,1\H,0,1.01554051,-2.06430295,-0.26345232\H,
 0,1.41221348,-3.50790796,0.68330627\H,0,2.28776701,-1.9997821,0.978385
 09\H,0,0.09227498,-0.7095981,1.83267489\C,0,1.324424,-2.42503809,0.712
 77693\S,0,0.06941485,-2.04508424,1.97921636\H,0,-2.69963741,0.19572079
 ,0.85975429\H,0,-1.64904896,-1.13147427,0.32383707\H,0,-2.27553103,0.0
 6093374,-0.85678799\H,0,0.54081048,2.41400368,-2.11227706\H,0,-0.47391

 Normal termination of Gaussian 16 at Wed Apr  9 19:28:19 2025.
 Gaussian 16:  ES64L-G16RevC.01  3-Jul-2019

 ----------------------------------------------------------------------
 #t hf aug-cc-pvdz iop(5/13=1,5/36=2,99/5=2) pseudo=read geom=check gue
 ss=(read,tcheck) scf=(maxcycle=1)
 ----------------------------------------------------------------------
 -----
 title
 -----
 Structure from the checkpoint file:  "HB300SPXx10_1171_4.22_0.80_methanethiol_dimethyldisulfide_dimer_mol1.chk"
 Charge =  0 Multiplicity = 1

                         Standard orientation:
 ---------------------------------------------------------------------
 Center     Atomic      Atomic             Coordinates (Angstroms)
 Number     Number       Type             X           Y           Z
 ---------------------------------------------------------------------
      1          1           0        1.033180   -1.556164    0.837602
      2          1           0        2.747171   -1.999556    0.895351
      3          1           0        1.860042   -2.130603   -0.629096
      4          1           0        1.426985    0.515644   -0.785333
      5          6           0        1.967203   -1.552970    0.284292
      6         16           0        2.508923    0.149647   -0.077536
      7          1           0        0.025885    2.819362    0.728190
      8          1           0        0.669925    1.266809    1.300186
      9          1           0       -1.023470    1.730591    1.654464
     10          1           0       -3.527590   -0.395652   -0.407924
     11          1           0       -2.976014   -0.210579    1.278517
     12          1           0       -3.188920   -1.829372    0.586608
     13          6           0       -0.215089    1.776354    0.930341
     14         16           0       -0.732856    1.064028   -0.662737
     15         16           0       -1.164128   -0.884247   -0.195934
     16          6           0       -2.891818   -0.803604    0.372157
 ---------------------------------------------------------------------

 SCF Done:  E(RHF) =  -1312.33491324     A.U. after    2 cycles

 The electronic state is 1-A.
 Alpha  occ. eigenvalues --  -93.97535 -93.97356 -93.92671 -11.27564 -11.26713
 Alpha  occ. eigenvalues --  -11.25213  -8.25560  -8.25420  -8.20874  -6.23364
 Alpha  occ. eigenvalues --   -6.23218  -6.23142  -6.23015  -6.22949  -6.22786
 Alpha  occ. eigenvalues --   -6.18733  -6.18594  -6.18378  -1.12831  -1.04947
 Alpha  occ. eigenvalues --   -1.03067  -0.92588  -0.87378  -0.81621  -0.63293
 Alpha  occ. eigenvalues --   -0.62289  -0.61180  -0.59749  -0.59116  -0.58374
 Alpha  occ. eigenvalues --   -0.54754  -0.52476  -0.50361  -0.46093  -0.45383
 Alpha  occ. eigenvalues --   -0.37149  -0.35894  -0.34788
 Alpha virt. eigenvalues --    0.03132   0.03692   0.04166   0.04835   0.05770
 Alpha virt. eigenvalues --    0.06266   0.06945   0.07518   0.07867   0.09156
 Alpha virt. eigenvalues --    0.09939   0.11605   0.12650   0.13136   0.13695

 Mulliken charges:
               1
     1  H    0.193298
     2  H    0.098109
     3  H    0.129158
     4  H    0.636162
     5  C   -0.592937
     6  S   -0.308163
     7  H    0.192026
     8  H    0.162475
     9  H    0.150048
    10  H    0.219489
    11  H    0.181705
    12  H    0.167218
    13  C   -0.509695
    14  S   -0.136754
    15  S    0.226329
    16  C   -0.808468
 Sum of Mulliken charges =   0.00000

 Dipole moment (field-independent basis, Debye):
    X=             -2.8503    Y=             -0.3984    Z=              1.8073  Tot=              3.3984

 Test job not archived.
 1\1\GINC-SE097\SP\RHF\Aug-CC-pVDZ\C3H10S3\OHZDE\09-Apr-2025\0\\#t hf a
 ug-cc-pvdz iop(5/13=1,5/36=2,99/5=2) pseudo=read geom=check guess=(rea
 d,tcheck) scf=(maxcycle=1)\\title\\0,1\H,0,1.01554051,-2.06430295,-0.2
 6345232\H,0,1.41221348,-3.50790796,0.68330627\H,0,2.28776701,-1.999782
 1,0.97838509\H,0,0.09227498,-0.7095981,1.83267489\C,0,1.324424,-2.4250
 3809,0.71277693\S,0,0.06941485,-2.04508424,1.97921636\H,0,-2.69963741,
 0.19572079,0.85975429\H,0,-1.64904896,-1.13147427,0.32383707\H,0,-2.27
 553103,0.06093374,-0.85678799\H,0,0.54081048,2.41400368,-2.11227706\H,

 Normal termination of Gaussian 16 at Wed Apr  9 19:28:25 2025.
