 Gaussian 16, Revision C.01,

 ----------------------------------------------------------------------
 #t hf aug-cc-pvdz symm=none int=(grid=ultrafine) guess=(read,tcheck) s
 table=(opt,rrhf)
 ----------------------------------------------------------------------
 -----
 title
 -----
 Symbolic Z-matrix:
 Charge =  0 Multiplicity = 1

 SCF Done:  E(RHF) =  -914.477722401     A.U. after   12 cycles

 1\1\GINC-SE099\Stability\RHF\Aug-CC-pVDZ\C3H10S2\OHZDE\09-Apr-2025\0\\
 #t hf aug-cc-pvdz symm=none int=(grid=ultrafine) guess=(read,tcheck) s
 table=(opt,rrhf)\\title\\0,1\H,0,2.306559,-2.0578968,-0.64952301\H,0,3
 .32031438,-1.47471252,0.67641305\H,0,2.52307119,-0.31083024,-0.3888258
 5\H,0,0.07002633,-1.01993654,0.36023035\C,0,2.42249764,-1.27751778,0.0
 9684023\S,0,1.02865784,-1.2837739,1.27093846\H,0,0.94391804,1.18954033
 ,0.31985728\H,0,0.03110929,2.46818142,-0.52346361\H,0,1.04597435,1.348
 54953,-1.44580142\H,0,-2.76178699,-0.05225924,0.71209749\H,0,-2.237853

 Normal termination of Gaussian 16 at Wed Apr  9 04:10:29 2025.
 Gaussian 16:  ES64L-G16RevC.01  3-Jul-2019

 ----------------------------------------------------------------------
 #t hf aug-cc-pvdz iop(5/13=1,5/36=2,99/5=2) pseudo=read geom=check gue
 ss=(read,tcheck) scf=(maxcycle=1)
 ----------------------------------------------------------------------
 -----
 title
 -----
 Structure from the checkpoint file:  "HB300SPXx10_1181_4.23_0.80_methanethiol_dimethylsulfide_dimer_mol1.chk"
 Charge =  0 Multiplicity = 1

                         Standard orientation:
 ---------------------------------------------------------------------
 Center     Atomic      Atomic             Coordinates (Angstroms)
 Number     Number       Type             X           Y           Z
 ---------------------------------------------------------------------
      1          1           0        2.541194    0.871493   -1.282917
      2          1           0        3.373072    0.701033    0.267835
      3          1           0        1.835524    1.570186    0.193883
      4          1           0        0.439104   -0.578624   -0.523035
      5          6           0        2.399995    0.736521   -0.214584
      6         16           0        1.580398   -0.851962    0.140825
      7          1           0       -0.064946    0.889404    1.276390
      8          1           0       -1.701446    1.587510    1.394073
      9          1           0       -0.513562    2.295047    0.288380
     10          1           0       -2.268303   -1.895686   -0.401901
     11          1           0       -2.753361   -0.898054    0.979023
     12          1           0       -1.097458   -1.546485    0.883890
     13          6           0       -0.873026    1.366014    0.724062
     14         16           0       -1.415474    0.306131   -0.640384
     15          6           0       -1.931736   -1.146289    0.310074
 ---------------------------------------------------------------------

 SCF Done:  E(RHF) =  -914.739178689     A.U. after    2 cycles

 The electronic state is 1-A.
 Alpha  occ. eigenvalues --  -93.95078 -93.92386 -11.26777 -11.26526 -11.25976
 Alpha  occ. eigenvalues --   -8.23239  -8.20628  -6.21053  -6.20898  -6.20713
 Alpha  occ. eigenvalues --   -6.18484  -6.18349  -6.18134  -1.10158  -1.04756
 Alpha  occ. eigenvalues --   -0.96662  -0.87708  -0.83701  -0.64275  -0.61935
 Alpha  occ. eigenvalues --   -0.59951  -0.59520  -0.59305  -0.57198  -0.52462
 Alpha  occ. eigenvalues --   -0.51323  -0.46363  -0.45272  -0.34988  -0.34486
 Alpha virt. eigenvalues --    0.03405   0.03659   0.04381   0.04649   0.06105
 Alpha virt. eigenvalues --    0.06647   0.06794   0.07896   0.08916   0.10174
 Alpha virt. eigenvalues --    0.10585   0.12934   0.13408   0.14535   0.14668

 Mulliken charges:
               1
     1  H    0.122932
     2  H    0.149645
     3  H    0.067784
     4  H    0.734089
     5  C   -0.652280
     6  S   -0.304781
     7  H    0.226027
     8  H    0.053907
     9  H    0.207919
    10  H    0.150470
    11  H    0.163434
    12  H    0.074234
    13  C   -0.503796
    14  S    0.031078
    15  C   -0.520661
 Sum of Mulliken charges =   0.00000

 Dipole moment (field-independent basis, Debye):
    X=             -0.8911    Y=              1.3687    Z=              0.9432  Tot=              1.8859

 Test job not archived.
 1\1\GINC-SE099\SP\RHF\Aug-CC-pVDZ\C3H10S2\OHZDE\09-Apr-2025\0\\#t hf a
 ug-cc-pvdz iop(5/13=1,5/36=2,99/5=2) pseudo=read geom=check guess=(rea
 d,tcheck) scf=(maxcycle=1)\\title\\0,1\H,0,2.306559,-2.0578968,-0.6495
 2301\H,0,3.32031438,-1.47471252,0.67641305\H,0,2.52307119,-0.31083024,
 -0.38882585\H,0,0.07002633,-1.01993654,0.36023035\C,0,2.42249764,-1.27
 751778,0.09684023\S,0,1.02865784,-1.2837739,1.27093846\H,0,0.94391804,
 1.18954033,0.31985728\H,0,0.03110929,2.46818142,-0.52346361\H,0,1.0459
 7435,1.34854953,-1.44580142\H,0,-2.76178699,-0.05225924,0.71209749\H,0

 Normal termination of Gaussian 16 at Wed Apr  9 04:10:34 2025.
