 Gaussian 16, Revision C.01,

 ----------------------------------------------------------------------
 #t hf aug-cc-pvdz symm=none int=(grid=ultrafine) guess=(read,tcheck) s
 table=(opt,rrhf)
 ----------------------------------------------------------------------
 -----
 title
 -----
 Symbolic Z-matrix:
 Charge =  0 Multiplicity = 1

 SCF Done:  E(RHF) =  -969.533589778     A.U. after   13 cycles
 Normal termination of Gaussian 16 at Wed Apr  9 19:24:14 2025.
 Gaussian 16:  ES64L-G16RevC.01  3-Jul-2019

 ----------------------------------------------------------------------
 #t hf aug-cc-pvdz iop(5/13=1,5/36=2,99/5=2) pseudo=read geom=check gue
 ss=(read,tcheck) scf=(maxcycle=1)
 ----------------------------------------------------------------------
 -----
 title
 -----
 Structure from the checkpoint file:  "HB300SPXx10_1065_4.10_1.00_methylamine_dimethyldisulfide_dimer_mol1.chk"
 Charge =  0 Multiplicity = 1

                         Standard orientation:
 ---------------------------------------------------------------------
 Center     Atomic      Atomic             Coordinates (Angstroms)
 Number     Number       Type             X           Y           Z
 ---------------------------------------------------------------------
      1          7           0        2.252712    0.915891   -0.003934
      2          1           0        2.461876    1.859126   -0.302857
      3          1           0        1.535185    0.560469   -0.624520
      4          6           0        3.449474    0.076909   -0.063890
      5          1           0        3.199353   -0.928693    0.272571
      6          1           0        3.904876   -0.006474   -1.057118
      7          1           0        4.201795    0.468577    0.619704
      8          1           0       -1.766601    2.599107    0.646222
      9          1           0       -0.774785    2.200184   -0.771358
     10          1           0       -0.231421    1.727277    0.860109
     11          1           0       -0.597704   -2.026989    1.561871
     12          1           0        0.712384   -0.831886    1.313094
     13          1           0        0.800186   -2.430831    0.542800
     14          6           0       -1.091740    1.862675    0.211704
     15         16           0       -2.055565    0.323172    0.076190
     16         16           0       -0.703958   -1.038774   -0.644359
     17          6           0        0.131974   -1.631495    0.861806
 ---------------------------------------------------------------------

 SCF Done:  E(RHF) =  -969.853787917     A.U. after    2 cycles

 The electronic state is 1-A.
 Alpha  occ. eigenvalues --  -93.96682 -93.96506 -15.48337 -11.26418 -11.26359
 Alpha  occ. eigenvalues --  -11.25458  -8.24671  -8.24505  -6.22485  -6.22316
 Alpha  occ. eigenvalues --   -6.22268  -6.22100  -6.22052  -6.21877  -1.17393
 Alpha  occ. eigenvalues --   -1.11535  -1.02355  -0.91627  -0.90968  -0.80659
 Alpha  occ. eigenvalues --   -0.69869  -0.63337  -0.61690  -0.60438  -0.60172
 Alpha  occ. eigenvalues --   -0.58480  -0.57993  -0.54100  -0.53320  -0.49751
 Alpha  occ. eigenvalues --   -0.44702  -0.42984  -0.36502  -0.35476
 Alpha virt. eigenvalues --    0.03371   0.03942   0.04336   0.04904   0.05617
 Alpha virt. eigenvalues --    0.06005   0.06612   0.07281   0.07875   0.09263
 Alpha virt. eigenvalues --    0.09661   0.10351   0.11513   0.12950   0.14214

 Mulliken charges:
               1
     1  N    0.068702
     2  H    0.145548
     3  H    0.037335
     4  C   -0.443744
     5  H    0.032570
     6  H    0.101631
     7  H    0.078995
     8  H    0.125282
     9  H    0.197177
    10  H    0.248393
    11  H    0.123054
    12  H    0.216932
    13  H    0.211454
    14  C   -0.662842
    15  S    0.115687
    16  S    0.019692
    17  C   -0.615864
 Sum of Mulliken charges =   0.00000

 Dipole moment (field-independent basis, Debye):
    X=              2.1307    Y=              0.8891    Z=              0.3178  Tot=              2.3306

 Test job not archived.
 1\1\GINC-SE036\SP\RHF\Aug-CC-pVDZ\C3H11N1S2\OHZDE\09-Apr-2025\0\\#t hf
  aug-cc-pvdz iop(5/13=1,5/36=2,99/5=2) pseudo=read geom=check guess=(r
 ead,tcheck) scf=(maxcycle=1)\\title\\0,1\N,0,-0.790217,0.77789413,2.28
 472778\H,0,-1.73224372,0.61681804,2.6155392\H,0,-0.85550262,0.99181266
 ,1.29666237\C,0,-0.16836631,1.8838218,3.01270443\H,0,0.84688345,2.0289
 6517,2.64500493\H,0,-0.69345824,2.84224623,2.93178871\H,0,-0.0959132,1
 .62767695,4.06903376\H,0,-1.69754833,-2.66796822,-0.30632981\H,0,-2.22
 673006,-0.97544622,-0.21853358\H,0,-0.89394691,-1.54909758,0.81837778\

 Normal termination of Gaussian 16 at Wed Apr  9 19:24:20 2025.
