 Gaussian 16, Revision C.01,

 ----------------------------------------------------------------------
 #t hf aug-cc-pvdz symm=none int=(grid=ultrafine) guess=(read,tcheck) s
 table=(opt,rrhf)
 ----------------------------------------------------------------------
 -----
 title
 -----
 Symbolic Z-matrix:
 Charge =  0 Multiplicity = 1

 SCF Done:  E(RHF) =  -532.960587784     A.U. after   13 cycles
 Normal termination of Gaussian 16 at Wed Apr  9 19:23:48 2025.
 Gaussian 16:  ES64L-G16RevC.01  3-Jul-2019

 ----------------------------------------------------------------------
 #t hf aug-cc-pvdz iop(5/13=1,5/36=2,99/5=2) pseudo=read geom=check gue
 ss=(read,tcheck) scf=(maxcycle=1)
 ----------------------------------------------------------------------
 -----
 title
 -----
 Structure from the checkpoint file:  "HB300SPXx10_1041_4.08_0.80_ammonia_dimethylsulfide_dimer_mol1.chk"
 Charge =  0 Multiplicity = 1

                         Standard orientation:
 ---------------------------------------------------------------------
 Center     Atomic      Atomic             Coordinates (Angstroms)
 Number     Number       Type             X           Y           Z
 ---------------------------------------------------------------------
      1          7           0        2.540506   -0.303266    0.148061
      2          1           0        3.138465   -0.367294    0.962050
      3          1           0        1.654661   -0.736172    0.385215
      4          1           0        2.962570   -0.868250   -0.577961
      5          1           0       -0.099898    1.630297    1.026241
      6          1           0       -0.553548    2.025915   -0.650401
      7          1           0        1.094477    1.467116   -0.268442
      8          1           0       -2.482950   -1.377019    0.194012
      9          1           0       -2.718836    0.312923   -0.277404
     10          1           0       -2.135490   -0.086390    1.356293
     11          6           0        0.041120    1.366849   -0.020708
     12         16           0       -0.393713   -0.367694   -0.305671
     13          6           0       -2.098384   -0.366042    0.304826
 ---------------------------------------------------------------------

 SCF Done:  E(RHF) =  -533.177431574     A.U. after    2 cycles

 The electronic state is 1-A.
 Alpha  occ. eigenvalues --  -93.93552 -15.46989 -11.25938 -11.24696  -8.21740
 Alpha  occ. eigenvalues --   -6.19564  -6.19402  -6.19186  -1.13660  -1.08027
 Alpha  occ. eigenvalues --   -0.95327  -0.82459  -0.66795  -0.65465  -0.60736
 Alpha  occ. eigenvalues --   -0.60174  -0.57859  -0.56659  -0.50004  -0.45806
 Alpha  occ. eigenvalues --   -0.43941  -0.34370
 Alpha virt. eigenvalues --    0.03716   0.04025   0.04513   0.05011   0.06731
 Alpha virt. eigenvalues --    0.07014   0.07806   0.07924   0.09376   0.11316
 Alpha virt. eigenvalues --    0.13424   0.15030   0.15431   0.16271   0.16720

 Mulliken charges:
               1
     1  N   -0.056804
     2  H    0.123095
     3  H   -0.072392
     4  H    0.146780
     5  H    0.203317
     6  H    0.146760
     7  H    0.112922
     8  H    0.139958
     9  H    0.186117
    10  H    0.166934
    11  C   -0.624758
    12  S    0.224573
    13  C   -0.696500
 Sum of Mulliken charges =  -0.00000

 Dipole moment (field-independent basis, Debye):
    X=             -0.7836    Y=             -0.0481    Z=              1.1003  Tot=              1.3517

 Test job not archived.
 1\1\GINC-SE014\SP\RHF\Aug-CC-pVDZ\C2H9N1S1\OHZDE\09-Apr-2025\0\\#t hf
 aug-cc-pvdz iop(5/13=1,5/36=2,99/5=2) pseudo=read geom=check guess=(re
 ad,tcheck) scf=(maxcycle=1)\\title\\0,1\N,0,-1.73355141,-2.37393966,0.
 81983189\H,0,-2.47172211,-2.47256241,1.50511242\H,0,-1.77953232,-1.428
 67287,0.45551723\H,0,-1.951459,-2.99867579,0.05388488\H,0,0.38419346,-
 0.00677464,2.00020592\H,0,1.75126352,-0.51180312,0.9757525\H,0,0.41363
 764,-1.63813849,1.31672504\H,0,-0.30961925,2.11682651,-1.22848307\H,0,
 1.27090226,1.80544493,-0.49447046\H,0,-0.13390921,2.17915062,0.5329337

 Normal termination of Gaussian 16 at Wed Apr  9 19:23:52 2025.
