 Gaussian 16, Revision C.01,

 ----------------------------------------------------------------------
 #t hf aug-cc-pvdz symm=none int=(grid=ultrafine) guess=(read,tcheck) s
 table=(opt,rrhf)
 ----------------------------------------------------------------------
 -----
 title
 -----
 Symbolic Z-matrix:
 Charge =  0 Multiplicity = 1

 SCF Done:  E(RHF) =  -800.705451265     A.U. after   14 cycles
 Normal termination of Gaussian 16 at Wed Apr  9 19:28:15 2025.
 Gaussian 16:  ES64L-G16RevC.01  3-Jul-2019

 ----------------------------------------------------------------------
 #t hf aug-cc-pvdz iop(5/13=1,5/36=2,99/5=2) pseudo=read geom=check gue
 ss=(read,tcheck) scf=(maxcycle=1)
 ----------------------------------------------------------------------
 -----
 title
 -----
 Structure from the checkpoint file:  "HB300SPXx10_1101_4.14_0.80_Nmethylacetamide_tetrahydrothiophene_dimer_mol1.chk"
 Charge =  0 Multiplicity = 1

                         Standard orientation:
 ---------------------------------------------------------------------
 Center     Atomic      Atomic             Coordinates (Angstroms)
 Number     Number       Type             X           Y           Z
 ---------------------------------------------------------------------
      1          6           0       -2.215843   -1.604472   -0.145348
      2          1           0       -2.165309   -2.091014    0.827425
      3          1           0       -1.391275   -1.946553   -0.767402
      4          1           0       -3.156408   -1.899047   -0.606872
      5          6           0       -2.230232   -0.102836    0.060544
      6          8           0       -3.102535    0.446987    0.713095
      7          7           0       -1.219396    0.575260   -0.539933
      8          1           0       -0.470680    0.051909   -0.971892
      9          6           0       -1.081013    2.010211   -0.412451
     10          1           0       -2.067418    2.451819   -0.304568
     11          1           0       -0.489820    2.291682    0.463067
     12          1           0       -0.601660    2.411422   -1.303001
     13          1           0        1.382458    1.612239   -0.844369
     14          1           0        2.976482    0.965771   -1.240397
     15          1           0        2.501449    1.751143    1.288200
     16          1           0        1.862692   -2.065947    0.930437
     17          1           0        3.365053    0.241589    1.013665
     18          1           0        0.127278   -1.760550    0.805262
     19          1           0        1.522976   -0.300562    2.561145
     20          1           0        0.366808    0.523877    1.520500
     21         16           0        1.331961   -0.802948   -1.064346
     22          6           0        2.092110    0.817077   -0.627270
     23          6           0        2.411647    0.750535    0.865642
     24          6           0        1.291918   -0.052661    1.525310
     25          6           0        1.111754   -1.316743    0.689091
 ---------------------------------------------------------------------

 SCF Done:  E(RHF) =  -801.196698399     A.U. after    2 cycles

 The electronic state is 1-A.
 Alpha  occ. eigenvalues --  -93.94902 -20.48905 -15.49999 -11.34080 -11.27799
 Alpha  occ. eigenvalues --  -11.27616 -11.26074 -11.25338 -11.24939 -11.23725
 Alpha  occ. eigenvalues --   -8.23159  -6.20936  -6.20822  -6.20639  -1.43939
 Alpha  occ. eigenvalues --   -1.22729  -1.15479  -1.01955  -1.00489  -1.00384
 Alpha  occ. eigenvalues --   -0.93919  -0.82524  -0.81445  -0.80210  -0.70331
 Alpha  occ. eigenvalues --   -0.68326  -0.66858  -0.65740  -0.63949  -0.62295
 Alpha  occ. eigenvalues --   -0.59191  -0.58287  -0.56446  -0.56211  -0.55337
 Alpha  occ. eigenvalues --   -0.52936  -0.51604  -0.50379  -0.50259  -0.49737
 Alpha  occ. eigenvalues --   -0.45075  -0.41004  -0.39926  -0.36101
 Alpha virt. eigenvalues --    0.02815   0.02877   0.03511   0.03976   0.04856
 Alpha virt. eigenvalues --    0.05381   0.05573   0.06188   0.06813   0.07726
 Alpha virt. eigenvalues --    0.08517   0.08689   0.09849   0.10441   0.11097

 Mulliken charges:
               1
     1  C   -0.343519
     2  H    0.313536
     3  H    0.137847
     4  H    0.040106
     5  C    0.511431
     6  O   -1.423915
     7  N    0.907169
     8  H    0.251398
     9  C   -0.430970
    10  H   -0.098121
    11  H    0.162504
    12  H    0.209176
    13  H    0.016084
    14  H    0.143706
    15  H    0.131215
    16  H    0.087782
    17  H    0.091190
    18  H    0.051862
    19  H    0.140302
    20  H    0.096549
    21  S    0.036496
    22  C   -0.366506
    23  C   -0.315715
    24  C   -0.177979
    25  C   -0.171629
 Sum of Mulliken charges =   0.00000

 Dipole moment (field-independent basis, Debye):
    X=              4.3777    Y=             -0.2924    Z=             -0.0085  Tot=              4.3874

 Test job not archived.
 1\1\GINC-SE232\SP\RHF\Aug-CC-pVDZ\C7H15N1O1S1\OHZDE\09-Apr-2025\0\\#t
 hf aug-cc-pvdz iop(5/13=1,5/36=2,99/5=2) pseudo=read geom=check guess=
 (read,tcheck) scf=(maxcycle=1)\\title\\0,1\C,0,-2.35790997,-0.53076315
 ,1.51380969\H,0,-2.45888814,0.43106478,2.01406411\H,0,-1.4356415,-1.01
 232631,1.83224394\H,0,-3.20368729,-1.14467685,1.81747472\C,0,-2.435185
 38,-0.3119418,0.01592702\O,0,-3.41358688,0.19433185,-0.50891479\N,0,-1
 .3525984,-0.72916607,-0.68842032\H,0,-0.53292762,-1.03795931,-0.184588
 74\C,0,-1.26500492,-0.56327277,-2.12344447\H,0,-2.26409386,-0.61429593

 Normal termination of Gaussian 16 at Wed Apr  9 19:28:34 2025.
