 Gaussian 16, Revision C.01,

 ----------------------------------------------------------------------
 #t hf aug-cc-pvdz symm=none int=(grid=ultrafine) guess=(read,tcheck) s
 table=(opt,rrhf)
 ----------------------------------------------------------------------
 -----
 title
 -----
 Symbolic Z-matrix:
 Charge =  0 Multiplicity = 1

 SCF Done:  E(RHF) =  -747.047120969     A.U. after   14 cycles
 Normal termination of Gaussian 16 at Wed Apr  9 19:33:35 2025.
 Gaussian 16:  ES64L-G16RevC.01  3-Jul-2019

 ----------------------------------------------------------------------
 #t hf aug-cc-pvdz iop(5/13=1,5/36=2,99/5=2) pseudo=read geom=check gue
 ss=(read,tcheck) scf=(maxcycle=1)
 ----------------------------------------------------------------------
 -----
 title
 -----
 Structure from the checkpoint file:  "HB300SPXx10_1455_5.08_1.00_methylcyanate_phosphineF2_dimer_mol1.chk"
 Charge =  0 Multiplicity = 1

                         Standard orientation:
 ---------------------------------------------------------------------
 Center     Atomic      Atomic             Coordinates (Angstroms)
 Number     Number       Type             X           Y           Z
 ---------------------------------------------------------------------
      1          1           0       -2.807958   -1.062975    1.318658
      2          1           0       -3.396856   -1.782346   -0.207841
      3          1           0       -1.637697   -1.673884    0.108227
      4          6           0       -2.606576   -1.209634    0.261012
      5          8           0       -2.630674    0.088004   -0.415158
      6          6           0       -1.738522    0.923819   -0.040754
      7          7           0       -0.939054    1.697399    0.270738
      8         15           0        1.706653    0.345401   -0.161140
      9          9           0        0.734258   -0.939030   -0.087242
     10          9           0        3.089633   -0.424944    0.099469
     11          1           0        1.517054    0.743022    1.192570
 ---------------------------------------------------------------------

 SCF Done:  E(RHF) =  -747.473349897     A.U. after    2 cycles

 The electronic state is 1-A.
 Alpha  occ. eigenvalues --  -84.40233 -26.47916 -26.47157 -20.65303 -15.51770
 Alpha  occ. eigenvalues --  -11.35656 -11.34214  -6.85867  -4.38666  -4.38041
 Alpha  occ. eigenvalues --   -4.36950  -1.61689  -1.58320  -1.57176  -1.24564
 Alpha  occ. eigenvalues --   -1.02000  -0.87770  -0.80956  -0.71997  -0.70768
 Alpha  occ. eigenvalues --   -0.70608  -0.70067  -0.68630  -0.64379  -0.62868
 Alpha  occ. eigenvalues --   -0.61540  -0.59745  -0.59288  -0.56774  -0.50063
 Alpha  occ. eigenvalues --   -0.47549  -0.37614
 Alpha virt. eigenvalues --    0.02803   0.04510   0.05430   0.05677   0.07152
 Alpha virt. eigenvalues --    0.09240   0.09476   0.10380   0.11313   0.11847
 Alpha virt. eigenvalues --    0.13375   0.14230   0.14908   0.15459   0.15957

 Mulliken charges:
               1
     1  H    0.154678
     2  H    0.049430
     3  H    0.161292
     4  C    0.373913
     5  O   -1.034531
     6  C   -0.542961
     7  N    0.847758
     8  P    1.461526
     9  F   -0.835712
    10  F   -0.757340
    11  H    0.121947
 Sum of Mulliken charges =  -0.00000

 Dipole moment (field-independent basis, Debye):
    X=             -3.4057    Y=             -2.9668    Z=              0.4246  Tot=              4.5367

 Test job not archived.
 1\1\GINC-SE028\SP\RHF\Aug-CC-pVDZ\C2H4F2N1O1P1\OHZDE\09-Apr-2025\0\\#t
  hf aug-cc-pvdz iop(5/13=1,5/36=2,99/5=2) pseudo=read geom=check guess
 =(read,tcheck) scf=(maxcycle=1)\\title\\0,1\H,0,-2.89287834,1.38344137
 ,-2.41875402\H,0,-2.88368966,0.15494314,-3.71690786\H,0,-2.33807438,-0
 .28314113,-2.0686702\C,0,-2.39546429,0.50243917,-2.8151059\O,0,-1.0419
 8507,0.86597867,-3.23651367\C,0,-0.26338211,1.27221362,-2.30729377\N,0
 ,0.4658792,1.6354549,-1.48824768\P,0,0.56410365,-0.57189984,0.54451304
 \F,0,-0.8234986,-0.92414149,-0.19795637\F,0,0.31684351,-1.4397834,1.87

 Normal termination of Gaussian 16 at Wed Apr  9 19:33:40 2025.
