 Gaussian 16, Revision C.01,

 ----------------------------------------------------------------------
 #t hf aug-cc-pvdz symm=none int=(grid=ultrafine) guess=(read,tcheck) s
 table=(opt,rrhf)
 ----------------------------------------------------------------------
 -----
 title
 -----
 Symbolic Z-matrix:
 Charge =  0 Multiplicity = 1

 SCF Done:  E(RHF) =  -648.914471127     A.U. after   12 cycles
 Normal termination of Gaussian 16 at Wed Apr  9 19:25:35 2025.
 Gaussian 16:  ES64L-G16RevC.01  3-Jul-2019

 ----------------------------------------------------------------------
 #t hf aug-cc-pvdz iop(5/13=1,5/36=2,99/5=2) pseudo=read geom=check gue
 ss=(read,tcheck) scf=(maxcycle=1)
 ----------------------------------------------------------------------
 -----
 title
 -----
 Structure from the checkpoint file:  "HB300SPXx10_1086_4.12_1.05_methylamine_tetrahydrothiophene_dimer_mol1.chk"
 Charge =  0 Multiplicity = 1

                         Standard orientation:
 ---------------------------------------------------------------------
 Center     Atomic      Atomic             Coordinates (Angstroms)
 Number     Number       Type             X           Y           Z
 ---------------------------------------------------------------------
      1          7           0        2.385498   -0.266294    0.816856
      2          1           0        1.656307   -0.858151    0.432758
      3          1           0        2.949089   -0.843563    1.426505
      4          6           0        3.201760    0.297818   -0.256798
      5          1           0        3.992294    0.913875    0.170656
      6          1           0        3.669431   -0.440412   -0.918802
      7          1           0        2.584244    0.951005   -0.873480
      8          1           0       -1.568395    0.550871   -2.009951
      9          1           0        0.189663    0.411147   -1.917920
     10          1           0       -0.985574    2.437931   -0.607780
     11          1           0       -0.512689   -0.567580    1.793547
     12          1           0        0.275154    1.516309    0.219086
     13          1           0       -2.197573   -1.051196    1.533322
     14          1           0       -1.649026    1.563436    1.752494
     15          1           0       -2.728474    1.042079    0.459730
     16         16           0       -0.904426   -1.224905   -0.504586
     17          6           0       -0.727200    0.409197   -1.334296
     18          6           0       -0.720218    1.454150   -0.219834
     19          6           0       -1.708244    0.969605    0.840278
     20          6           0       -1.363117   -0.491304    1.119851
 ---------------------------------------------------------------------

 SCF Done:  E(RHF) =  -649.255449439     A.U. after    2 cycles

 The electronic state is 1-A.
 Alpha  occ. eigenvalues --  -93.93025 -15.47501 -11.26047 -11.25849 -11.24877
 Alpha  occ. eigenvalues --  -11.23715 -11.23464  -8.21142  -6.18946  -6.18828
 Alpha  occ. eigenvalues --   -6.18603  -1.16564  -1.13569  -0.98788  -0.98159
 Alpha  occ. eigenvalues --   -0.90226  -0.79685  -0.79449  -0.69115  -0.66134
 Alpha  occ. eigenvalues --   -0.64784  -0.62553  -0.60532  -0.57739  -0.55405
 Alpha  occ. eigenvalues --   -0.52906  -0.51248  -0.49928  -0.48456  -0.48438
 Alpha  occ. eigenvalues --   -0.42976  -0.42177  -0.34038
 Alpha virt. eigenvalues --    0.03579   0.03715   0.03852   0.04266   0.05713
 Alpha virt. eigenvalues --    0.05783   0.05809   0.06735   0.07589   0.08285
 Alpha virt. eigenvalues --    0.08827   0.09454   0.10447   0.11751   0.13427

 Mulliken charges:
               1
     1  N    0.046761
     2  H    0.019744
     3  H    0.207412
     4  C   -0.422017
     5  H    0.074768
     6  H    0.096091
     7  H    0.033787
     8  H    0.140505
     9  H    0.138262
    10  H    0.150763
    11  H    0.134590
    12  H    0.163882
    13  H    0.156944
    14  H    0.130716
    15  H    0.096640
    16  S    0.416226
    17  C   -0.612204
    18  C   -0.213355
    19  C   -0.295051
    20  C   -0.464464
 Sum of Mulliken charges =  -0.00000

 Dipole moment (field-independent basis, Debye):
    X=              0.2088    Y=              1.1354    Z=              0.0981  Tot=              1.1586

 Test job not archived.
 1\1\GINC-SE159\SP\RHF\Aug-CC-pVDZ\C5H13N1S1\OHZDE\09-Apr-2025\0\\#t hf
  aug-cc-pvdz iop(5/13=1,5/36=2,99/5=2) pseudo=read geom=check guess=(r
 ead,tcheck) scf=(maxcycle=1)\\title\\0,1\N,0,-0.48023551,2.04199658,1.
 33183501\H,0,-0.98136805,1.22913012,0.98881982\H,0,-1.14375731,2.80345
 765,1.38144373\C,0,0.08991425,1.76981847,2.65020044\H,0,0.60698078,2.6
 5693888,3.01468146\H,0,-0.63523497,1.46399211,3.41346792\H,0,0.8338340
 5,0.97768014,2.5643137\H,0,0.85797603,-2.51535989,0.01594703\H,0,0.568
 15397,-1.37275025,1.33094022\H,0,2.58620576,-0.86129084,-0.36357428\H,

 Normal termination of Gaussian 16 at Wed Apr  9 19:25:44 2025.
