 Gaussian 16, Revision C.01,

 ----------------------------------------------------------------------
 #t hf aug-cc-pvdz symm=none int=(grid=ultrafine) guess=(read,tcheck) s
 table=(opt,rrhf)
 ----------------------------------------------------------------------
 -----
 title
 -----
 Symbolic Z-matrix:
 Charge =  0 Multiplicity = 1

 SCF Done:  E(RHF) =  -591.449614834     A.U. after   14 cycles
 Normal termination of Gaussian 16 at Wed Apr  9 19:21:54 2025.
 Gaussian 16:  ES64L-G16RevC.01  3-Jul-2019

 ----------------------------------------------------------------------
 #t hf aug-cc-pvdz iop(5/13=1,5/36=2,99/5=2) pseudo=read geom=check gue
 ss=(read,tcheck) scf=(maxcycle=1)
 ----------------------------------------------------------------------
 -----
 title
 -----
 Structure from the checkpoint file:  "HB300SPXx10_1011_4.05_0.80_ethyne_thioacetone_dimer_mol1.chk"
 Charge =  0 Multiplicity = 1

                         Standard orientation:
 ---------------------------------------------------------------------
 Center     Atomic      Atomic             Coordinates (Angstroms)
 Number     Number       Type             X           Y           Z
 ---------------------------------------------------------------------
      1          6           0        0.202998   -2.579481    0.000000
      2          1           0       -0.486273   -1.764806    0.000000
      3          6           0        0.992754   -3.478582    0.000000
      4          1           0        1.687624   -4.280580    0.000000
      5          1           0       -1.110406    3.047399    0.000000
      6          1           0        0.436312    3.099682    0.874719
      7          1           0        0.436312    3.099682   -0.874719
      8          1           0        1.406729   -0.435030    0.000000
      9          1           0        1.934381    1.016999   -0.874314
     10          6           0       -0.083091    2.699887    0.000000
     11          6           0        0.000000    1.203543    0.000000
     12         16           0       -1.328973    0.264684    0.000000
     13          6           0        1.391424    0.648752    0.000000
     14          1           0        1.934381    1.016999    0.874314
 ---------------------------------------------------------------------

 SCF Done:  E(RHF) =  -591.717351772     A.U. after    2 cycles

 The electronic state is 1-A'.
 Alpha  occ. eigenvalues --  -93.92783 -11.34005 -11.25779 -11.25349 -11.23220
 Alpha  occ. eigenvalues --  -11.22573  -8.21213  -6.19019  -6.18822  -6.18627
 Alpha  occ. eigenvalues --   -1.14133  -1.02015  -0.98387  -0.97660  -0.76137
 Alpha  occ. eigenvalues --   -0.73495  -0.67854  -0.62836  -0.62769  -0.62453
 Alpha  occ. eigenvalues --   -0.57050  -0.54579  -0.51233  -0.40696  -0.40482
 Alpha  occ. eigenvalues --   -0.39928  -0.35274
 Alpha virt. eigenvalues --    0.03023   0.03520   0.03605   0.04869   0.05885
 Alpha virt. eigenvalues --    0.06069   0.06682   0.07426   0.08788   0.09749
 Alpha virt. eigenvalues --    0.10618   0.12153   0.13079   0.13654   0.14099

 Mulliken charges:
               1
     1  C    0.453935
     2  H   -0.121918
     3  C    0.032375
     4  H   -0.283984
     5  H    0.175501
     6  H    0.254025
     7  H    0.254025
     8  H   -0.010140
     9  H    0.305607
    10  C   -0.517787
    11  C   -0.531054
    12  S    0.060619
    13  C   -0.376810
    14  H    0.305607
 Sum of Mulliken charges =  -0.00000

 Dipole moment (field-independent basis, Debye):
    X=              2.6084    Y=              2.6144    Z=              0.0000  Tot=              3.6930

 Test job not archived.
 1\1\GINC-SE362\SP\RHF\Aug-CC-pVDZ\C5H8S1\OHZDE\09-Apr-2025\0\\#t hf au
 g-cc-pvdz iop(5/13=1,5/36=2,99/5=2) pseudo=read geom=check guess=(read
 ,tcheck) scf=(maxcycle=1)\\title\\0,1\C,0,-0.20751211,-2.93011645,0.\H
 ,0,-0.70775465,-1.98748922,0.\C,0,0.37296237,-3.97660953,0.\H,0,0.8813
 7254,-4.90804053,0.\H,0,-0.29418133,2.84736524,0.\H,0,1.22827177,2.569
 50611,0.87471889\H,0,1.22827177,2.56950611,-0.87471889\H,0,1.42474965,
 -1.0907251,0.\H,0,2.24913865,0.21586854,-0.87431367\C,0,0.63572496,2.2
 8932088,0.\C,0,0.39868284,0.80953647,0.\S,0,-1.09955789,0.17479234,0.\

 Normal termination of Gaussian 16 at Wed Apr  9 19:21:57 2025.
