 Gaussian 16, Revision C.01,

 ----------------------------------------------------------------------
 #t hf aug-cc-pvdz symm=none int=(grid=ultrafine) guess=(read,tcheck) s
 table=(opt,rrhf)
 ----------------------------------------------------------------------
 -----
 title
 -----
 Symbolic Z-matrix:
 Charge =  0 Multiplicity = 1

 SCF Done:  E(RHF) =  -1054.87855838     A.U. after   15 cycles
 Normal termination of Gaussian 16 at Wed Apr  9 19:34:17 2025.
 Gaussian 16:  ES64L-G16RevC.01  3-Jul-2019

 ----------------------------------------------------------------------
 #t hf aug-cc-pvdz iop(5/13=1,5/36=2,99/5=2) pseudo=read geom=check gue
 ss=(read,tcheck) scf=(maxcycle=1)
 ----------------------------------------------------------------------
 -----
 title
 -----
 Structure from the checkpoint file:  "HB300SPXx10_1481_5.11_0.80_thioacetone_phosphineF2_dimer_mol1.chk"
 Charge =  0 Multiplicity = 1

                         Standard orientation:
 ---------------------------------------------------------------------
 Center     Atomic      Atomic             Coordinates (Angstroms)
 Number     Number       Type             X           Y           Z
 ---------------------------------------------------------------------
      1          1           0        0.381308    1.613180   -0.164081
      2          1           0        1.596401    1.914018    1.095439
      3          1           0        2.025681    2.139083   -0.584507
      4          1           0        3.654221   -1.135921    0.252583
      5          1           0        3.944991    0.458628   -0.475678
      6          6           0        1.429996    1.518823    0.089564
      7          6           0        1.906207    0.101348    0.030371
      8         16           0        0.916585   -1.154419   -0.273160
      9          6           0        3.371506   -0.089175    0.276378
     10          1           0        3.643714    0.340735    1.243653
     11         15           0       -1.720380   -0.226814    0.293639
     12          9           0       -3.325431   -0.114647    0.276460
     13          9           0       -1.419784    1.063099   -0.611409
     14          1           0       -1.645302   -1.178864   -0.764769
 ---------------------------------------------------------------------

 SCF Done:  E(RHF) =  -1055.29073605     A.U. after    2 cycles

 The electronic state is 1-A.
 Alpha  occ. eigenvalues --  -93.93691 -84.39165 -26.47162 -26.45472 -11.34586
 Alpha  occ. eigenvalues --  -11.26219 -11.25333  -8.22154  -6.84765  -6.19950
 Alpha  occ. eigenvalues --   -6.19744  -6.19565  -4.37617  -4.37006  -4.35919
 Alpha  occ. eigenvalues --   -1.60914  -1.56001  -1.14727  -0.99216  -0.98098
 Alpha  occ. eigenvalues --   -0.86930  -0.75017  -0.69646  -0.69413  -0.68590
 Alpha  occ. eigenvalues --   -0.63831  -0.63275  -0.63157  -0.62848  -0.60252
 Alpha  occ. eigenvalues --   -0.57385  -0.56960  -0.54205  -0.51041  -0.41889
 Alpha  occ. eigenvalues --   -0.37497  -0.34602
 Alpha virt. eigenvalues --    0.02940   0.03262   0.04241   0.05013   0.05665
 Alpha virt. eigenvalues --    0.06325   0.07147   0.07799   0.09228   0.09430
 Alpha virt. eigenvalues --    0.10615   0.11917   0.12493   0.14100   0.14388

 Mulliken charges:
               1
     1  H   -0.000637
     2  H    0.305408
     3  H    0.284390
     4  H    0.172638
     5  H    0.258224
     6  C   -0.446679
     7  C   -0.537033
     8  S    0.150494
     9  C   -0.410619
    10  H    0.257356
    11  P    1.505592
    12  F   -0.794553
    13  F   -0.885787
    14  H    0.141206
 Sum of Mulliken charges =  -0.00000

 Dipole moment (field-independent basis, Debye):
    X=              4.1084    Y=              1.2683    Z=              0.5773  Tot=              4.3383

 Test job not archived.
 1\1\GINC-SE113\SP\RHF\Aug-CC-pVDZ\C3H7F2P1S1\OHZDE\09-Apr-2025\0\\#t h
 f aug-cc-pvdz iop(5/13=1,5/36=2,99/5=2) pseudo=read geom=check guess=(
 read,tcheck) scf=(maxcycle=1)\\title\\0,1\H,0,-0.82524406,-0.11851319,
 -2.18150719\H,0,-1.6981931,1.21808686,-2.95919937\H,0,-0.71897066,0.14
 764096,-3.93512177\H,0,1.41759528,3.22175764,-3.68330427\H,0,0.7352472
 6,2.04678605,-4.82844268\C,0,-0.77357806,0.63435768,-2.9583614\C,0,0.3
 925438,1.55581911,-2.78347778\S,0,1.39271927,1.4865874,-1.50157001\C,0
 ,0.57891903,2.56210758,-3.87735604\H,0,-0.33203334,3.15446018,-3.99493

 Normal termination of Gaussian 16 at Wed Apr  9 19:34:22 2025.
