 Gaussian 16, Revision C.01,

 ----------------------------------------------------------------------
 #t hf aug-cc-pvdz symm=none int=(grid=ultrafine) guess=(read,tcheck) s
 table=(opt,rrhf)
 ----------------------------------------------------------------------
 -----
 title
 -----
 Symbolic Z-matrix:
 Charge =  0 Multiplicity = 1

 SCF Done:  E(RHF) =  -875.460381460     A.U. after   12 cycles
 Normal termination of Gaussian 16 at Wed Apr  9 04:10:29 2025.
 Gaussian 16:  ES64L-G16RevC.01  3-Jul-2019

 ----------------------------------------------------------------------
 #t hf aug-cc-pvdz iop(5/13=1,5/36=2,99/5=2) pseudo=read geom=check gue
 ss=(read,tcheck) scf=(maxcycle=1)
 ----------------------------------------------------------------------
 -----
 title
 -----
 Structure from the checkpoint file:  "HB300SPXx10_1196_4.24_1.05_methanethiol_methanethiol_dimer_mol1.chk"
 Charge =  0 Multiplicity = 1

                         Standard orientation:
 ---------------------------------------------------------------------
 Center     Atomic      Atomic             Coordinates (Angstroms)
 Number     Number       Type             X           Y           Z
 ---------------------------------------------------------------------
      1          1           0       -1.043253    0.914831    1.338097
      2          1           0       -2.805129    0.974457    1.228784
      3          1           0       -1.830267    1.841931    0.036890
      4          1           0       -0.782448   -0.366456   -1.000430
      5          6           0       -1.885029    0.947863    0.651122
      6         16           0       -1.960239   -0.552731   -0.378411
      7          1           0        2.333378   -0.471672    1.740979
      8          1           0        2.263683   -1.724898    0.497388
      9          1           0        0.758949   -1.003913    1.077099
     10          1           0        1.436477    1.450607    0.136889
     11          6           0        1.803982   -0.807140    0.854430
     12         16           0        1.969920    0.399029   -0.502152
 ---------------------------------------------------------------------

 SCF Done:  E(RHF) =  -875.674852761     A.U. after    2 cycles

 The electronic state is 1-A.
 Alpha  occ. eigenvalues --  -93.95598 -93.94506 -11.27230 -11.26958  -8.23678
 Alpha  occ. eigenvalues --   -8.22601  -6.21538  -6.21388  -6.21159  -6.20460
 Alpha  occ. eigenvalues --   -6.20318  -6.20087  -1.06915  -1.05914  -0.89115
 Alpha  occ. eigenvalues --   -0.88482  -0.62597  -0.61773  -0.60651  -0.59524
 Alpha  occ. eigenvalues --   -0.54241  -0.53409  -0.47423  -0.46717  -0.37156
 Alpha  occ. eigenvalues --   -0.36242
 Alpha virt. eigenvalues --    0.03185   0.03779   0.04511   0.04838   0.06923
 Alpha virt. eigenvalues --    0.07173   0.07326   0.09149   0.10431   0.12351
 Alpha virt. eigenvalues --    0.12711   0.12972   0.14634   0.14783   0.15129

 Mulliken charges:
               1
     1  H    0.155496
     2  H    0.134328
     3  H    0.142584
     4  H    0.408224
     5  C   -0.685675
     6  S   -0.141738
     7  H    0.129212
     8  H    0.175285
     9  H    0.132043
    10  H    0.349122
    11  C   -0.648460
    12  S   -0.150421
 Sum of Mulliken charges =  -0.00000

 Dipole moment (field-independent basis, Debye):
    X=              0.5153    Y=              0.9390    Z=              2.0125  Tot=              2.2798

 Test job not archived.
 1\1\GINC-SE102\SP\RHF\Aug-CC-pVDZ\C2H8S2\OHZDE\09-Apr-2025\0\\#t hf au
 g-cc-pvdz iop(5/13=1,5/36=2,99/5=2) pseudo=read geom=check guess=(read
 ,tcheck) scf=(maxcycle=1)\\title\\0,1\H,0,1.48841111,-0.83932977,-0.94
 699875\H,0,2.60301323,-1.84400864,-0.01533608\H,0,2.55978836,-0.100175
 65,0.26866848\H,0,0.07877426,-0.11956038,1.21477831\C,0,1.95766928,-0.
 9705586,0.02469451\S,0,0.71991769,-1.29709475,1.32035013\H,0,-1.623917
 28,0.2674242,-2.5516324\H,0,-2.69381653,0.19976185,-1.14710868\H,0,-1.
 14615781,-0.64977676,-1.0910397\H,0,0.26243188,1.66123225,-1.29796606\

 Normal termination of Gaussian 16 at Wed Apr  9 04:10:32 2025.
