 Gaussian 16, Revision C.01,

 ----------------------------------------------------------------------
 #t hf aug-cc-pvdz symm=none int=(grid=ultrafine) guess=(read,tcheck) s
 table=(opt,rrhf)
 ----------------------------------------------------------------------
 -----
 title
 -----
 Symbolic Z-matrix:
 Charge =  0 Multiplicity = 1

 SCF Done:  E(RHF) =  -742.474910658     A.U. after   14 cycles
 Normal termination of Gaussian 16 at Wed Apr  9 19:27:34 2025.
 Gaussian 16:  ES64L-G16RevC.01  3-Jul-2019

 ----------------------------------------------------------------------
 #t hf aug-cc-pvdz iop(5/13=1,5/36=2,99/5=2) pseudo=read geom=check gue
 ss=(read,tcheck) scf=(maxcycle=1)
 ----------------------------------------------------------------------
 -----
 title
 -----
 Structure from the checkpoint file:  "HB300SPXx10_1132_4.17_0.85_aceticacid_thioacetone_dimer_mol1.chk"
 Charge =  0 Multiplicity = 1

                         Standard orientation:
 ---------------------------------------------------------------------
 Center     Atomic      Atomic             Coordinates (Angstroms)
 Number     Number       Type             X           Y           Z
 ---------------------------------------------------------------------
      1          6           0       -1.911990    1.249840    0.000000
      2          8           0       -2.055854    0.050214    0.000000
      3          8           0       -0.716048    1.851084    0.000000
      4          1           0        0.000000    1.175797    0.000000
      5          6           0       -3.038874    2.246174    0.000000
      6          1           0       -3.990169    1.725887    0.000000
      7          1           0       -2.963101    2.887685    0.876954
      8          1           0       -2.963101    2.887685   -0.876954
      9          1           0        3.615803   -1.790986    0.000000
     10          1           0        2.612114   -2.969843    0.874412
     11          1           0        2.612114   -2.969843   -0.874412
     12          1           0       -0.660422   -1.309817    0.000000
     13          1           0        0.069287   -2.677180   -0.872921
     14          6           0        2.667121   -2.316667    0.000000
     15          6           0        1.501370   -1.376412    0.000000
     16         16           0        1.720904    0.239644    0.000000
     17          6           0        0.155529   -2.024083    0.000000
     18          1           0        0.069287   -2.677180    0.872921
 ---------------------------------------------------------------------

 SCF Done:  E(RHF) =  -742.891462229     A.U. after    2 cycles

 The electronic state is 1-A'.
 Alpha  occ. eigenvalues --  -93.93231 -20.56303 -20.52195 -11.38193 -11.34304
 Alpha  occ. eigenvalues --  -11.25857 -11.24171 -11.23832  -8.21735  -6.19543
 Alpha  occ. eigenvalues --   -6.19331  -6.19166  -1.52617  -1.43512  -1.14228
 Alpha  occ. eigenvalues --   -1.01951  -0.98667  -0.97189  -0.81519  -0.73684
 Alpha  occ. eigenvalues --   -0.70710  -0.66961  -0.63555  -0.62790  -0.62510
 Alpha  occ. eigenvalues --   -0.61867  -0.57075  -0.56447  -0.56300  -0.54521
 Alpha  occ. eigenvalues --   -0.53739  -0.50999  -0.45735  -0.42897  -0.40453
 Alpha  occ. eigenvalues --   -0.36086
 Alpha virt. eigenvalues --    0.03231   0.03539   0.04122   0.04710   0.05963
 Alpha virt. eigenvalues --    0.05988   0.06089   0.06199   0.07814   0.07899
 Alpha virt. eigenvalues --    0.08848   0.09678   0.12518   0.12842   0.13307

 Mulliken charges:
               1
     1  C    1.866318
     2  O   -1.330277
     3  O   -1.507249
     4  H    0.921714
     5  C   -0.509977
     6  H    0.164885
     7  H    0.231217
     8  H    0.231217
     9  H    0.168370
    10  H    0.254641
    11  H    0.254641
    12  H   -0.141263
    13  H    0.338163
    14  C   -0.488378
    15  C   -0.665103
    16  S    0.114042
    17  C   -0.241123
    18  H    0.338163
 Sum of Mulliken charges =  -0.00000

 Dipole moment (field-independent basis, Debye):
    X=              0.5640    Y=             -2.1173    Z=              0.0000  Tot=              2.1911

 Test job not archived.
 1\1\GINC-SE100\SP\RHF\Aug-CC-pVDZ\C5H10O2S1\OHZDE\09-Apr-2025\0\\#t hf
  aug-cc-pvdz iop(5/13=1,5/36=2,99/5=2) pseudo=read geom=check guess=(r
 ead,tcheck) scf=(maxcycle=1)\\title\\0,1\C,0,0.15920132,2.45664609,0.\
 O,0,1.21885316,1.87618237,0.\O,0,-1.02533188,1.83322707,0.\H,0,-0.8922
 641,0.85801947,0.\C,0,0.00380934,3.95277518,0.\H,0,0.98023034,4.424223
 4,0.\H,0,-0.56217465,4.2641268,-0.87695442\H,0,-0.56217465,4.2641268,0
 .87695442\H,0,-0.58089055,-3.80876538,0.\H,0,0.96179958,-3.67760855,-0
 .87441231\H,0,0.96179958,-3.67760855,0.87441231\H,0,1.51400083,-0.0499

 Normal termination of Gaussian 16 at Wed Apr  9 19:27:41 2025.
