 Gaussian 16, Revision C.01,

 ----------------------------------------------------------------------
 #t hf aug-cc-pvdz symm=none int=(grid=ultrafine) guess=(read,tcheck) s
 table=(opt,rrhf)
 ----------------------------------------------------------------------
 -----
 title
 -----
 Symbolic Z-matrix:
 Charge =  0 Multiplicity = 1

 SCF Done:  E(RHF) =  -1166.70215593     A.U. after   13 cycles
 Normal termination of Gaussian 16 at Wed Apr  9 19:31:21 2025.
 Gaussian 16:  ES64L-G16RevC.01  3-Jul-2019

 ----------------------------------------------------------------------
 #t hf aug-cc-pvdz iop(5/13=1,5/36=2,99/5=2) pseudo=read geom=check gue
 ss=(read,tcheck) scf=(maxcycle=1)
 ----------------------------------------------------------------------
 -----
 title
 -----
 Structure from the checkpoint file:  "HB300SPXx10_1393_5.02_0.90_dimethylsulfone_phosphineF2_dimer_mol1.chk"
 Charge =  0 Multiplicity = 1

                         Standard orientation:
 ---------------------------------------------------------------------
 Center     Atomic      Atomic             Coordinates (Angstroms)
 Number     Number       Type             X           Y           Z
 ---------------------------------------------------------------------
      1          1           0        2.174131    0.491626    2.083042
      2          1           0        1.389135   -1.107846    2.016322
      3          1           0        0.393902    0.366850    1.873229
      4          1           0        0.472945    1.899029   -0.389263
      5          1           0        1.576118    1.488620   -1.731781
      6          1           0        2.251171    2.092255   -0.196973
      7          8           0        2.909582   -0.652884   -0.381024
      8         16           0        1.577105   -0.180654   -0.110912
      9          8           0        0.448610   -0.903679   -0.659479
     10          6           0        1.357716   -0.082878    1.655411
     11          6           0        1.453022    1.512815   -0.651820
     12         15           0       -2.016363   -0.449045   -0.044829
     13          9           0       -3.572707   -0.056980   -0.062019
     14          9           0       -1.443610    1.010078    0.344483
     15          1           0       -1.828746   -0.309400   -1.447250
 ---------------------------------------------------------------------

 SCF Done:  E(RHF) =  -1167.22692788     A.U. after    2 cycles

 The electronic state is 1-A.
 Alpha  occ. eigenvalues --  -94.19913 -84.39997 -26.48331 -26.46678 -20.54712
 Alpha  occ. eigenvalues --  -20.54019 -11.29290 -11.29048  -8.45402  -6.85618
 Alpha  occ. eigenvalues --   -6.43525  -6.43281  -6.43205  -4.38435  -4.37850
 Alpha  occ. eigenvalues --   -4.36765  -1.61866  -1.57336  -1.57047  -1.45104
 Alpha  occ. eigenvalues --   -1.10464  -1.02595  -0.88044  -0.84363  -0.71867
 Alpha  occ. eigenvalues --   -0.71068  -0.70744  -0.69740  -0.69248  -0.67700
 Alpha  occ. eigenvalues --   -0.64682  -0.63199  -0.62625  -0.62272  -0.60432
 Alpha  occ. eigenvalues --   -0.59454  -0.56511  -0.50651  -0.50441  -0.47188
 Alpha  occ. eigenvalues --   -0.45207  -0.37165
 Alpha virt. eigenvalues --    0.02854   0.03916   0.04520   0.05218   0.06354
 Alpha virt. eigenvalues --    0.06605   0.07201   0.09165   0.09456   0.10707
 Alpha virt. eigenvalues --    0.12477   0.13639   0.13919   0.14394   0.14979

 Mulliken charges:
               1
     1  H    0.211979
     2  H    0.263471
     3  H    0.208038
     4  H    0.215507
     5  H    0.244713
     6  H    0.213320
     7  O   -1.490896
     8  S    3.021923
     9  O   -1.519951
    10  C   -0.643035
    11  C   -0.622827
    12  P    1.491118
    13  F   -0.789110
    14  F   -0.880419
    15  H    0.076169
 Sum of Mulliken charges =   0.00000

 Dipole moment (field-independent basis, Debye):
    X=              0.9048    Y=              2.8791    Z=              1.8373  Tot=              3.5332

 Test job not archived.
 1\1\GINC-SE454\SP\RHF\Aug-CC-pVDZ\C2H7F2O2P1S1\OHZDE\09-Apr-2025\0\\#t
  hf aug-cc-pvdz iop(5/13=1,5/36=2,99/5=2) pseudo=read geom=check guess
 =(read,tcheck) scf=(maxcycle=1)\\title\\0,1\H,0,1.82037896,-1.1252997,
 2.45423408\H,0,2.45327614,-0.04590354,1.18406648\H,0,1.26048817,-1.302
 78481,0.75605091\H,0,-1.35656486,-1.06874241,1.510339\H,0,-1.8999986,0
 .31018714,2.5058364\H,0,-0.84910966,-0.93302114,3.2309401\O,0,0.704774
 22,1.412934,2.93921594\S,0,0.30796869,0.58975017,1.82729483\O,0,-0.016
 49706,1.22000253,0.56448154\C,0,1.58998555,-0.61149627,1.52558836\C,0,

 Normal termination of Gaussian 16 at Wed Apr  9 19:31:27 2025.
