 Gaussian 16, Revision C.01,

 ----------------------------------------------------------------------
 #t hf aug-cc-pvdz symm=none int=(grid=ultrafine) guess=(read,tcheck) s
 table=(opt,rrhf)
 ----------------------------------------------------------------------
 -----
 title
 -----
 Symbolic Z-matrix:
 Charge =  0 Multiplicity = 1

 SCF Done:  E(RHF) =  -952.360888478     A.U. after   15 cycles

 1\1\GINC-SE083\Stability\RHF\Aug-CC-pVDZ\C4H10S2\OHZDE\09-Apr-2025\0\\
 #t hf aug-cc-pvdz symm=none int=(grid=ultrafine) guess=(read,tcheck) s
 table=(opt,rrhf)\\title\\0,1\H,0,1.94048627,-0.28311522,0.30003006\H,0
 ,2.70886397,-1.74966836,-0.33633756\H,0,2.5169729,-1.54996222,1.410513
 58\H,0,-0.19256655,-1.5118813,1.21090974\C,0,2.06439688,-1.35234501,0.
 4434425\S,0,0.46794236,-2.21627191,0.2804649\H,0,-2.76786656,0.6912168
 9,0.37000932\H,0,-2.82583104,1.14769254,-1.34615986\H,0,-2.18395985,-0
 .4189906,-0.89268673\H,0,0.87775479,1.62337041,-1.68527767\H,0,0.10121

 Normal termination of Gaussian 16 at Wed Apr  9 19:23:11 2025.
 Gaussian 16:  ES64L-G16RevC.01  3-Jul-2019

 ----------------------------------------------------------------------
 #t hf aug-cc-pvdz iop(5/13=1,5/36=2,99/5=2) pseudo=read geom=check gue
 ss=(read,tcheck) scf=(maxcycle=1)
 ----------------------------------------------------------------------
 -----
 title
 -----
 Structure from the checkpoint file:  "HB300SPXx10_1026_4.06_1.05_methanethiol_thioacetone_dimer_mol1.chk"
 Charge =  0 Multiplicity = 1

                         Standard orientation:
 ---------------------------------------------------------------------
 Center     Atomic      Atomic             Coordinates (Angstroms)
 Number     Number       Type             X           Y           Z
 ---------------------------------------------------------------------
      1          1           0        1.366389   -1.359750    0.718848
      2          1           0        2.901935   -0.796421    1.405074
      3          1           0        2.901291   -1.691137   -0.120598
      4          1           0        1.442271    0.233338   -1.365809
      5          6           0        2.353778   -0.973933    0.483514
      6         16           0        2.234633    0.636281   -0.361835
      7          1           0       -1.871126    1.300690   -1.639830
      8          1           0       -2.547899    2.013850   -0.159848
      9          1           0       -0.826753    2.138266   -0.466945
     10          1           0       -1.092035   -0.562634    2.142327
     11          1           0       -0.214174    0.924894    1.722665
     12          6           0       -1.692587    1.482855   -0.585645
     13          6           0       -1.460283    0.210438    0.168630
     14         16           0       -1.507865   -1.252205   -0.543218
     15          6           0       -1.161370    0.388028    1.624747
     16          1           0       -1.925416    1.009353    2.097497
 ---------------------------------------------------------------------

 SCF Done:  E(RHF) =  -952.653448537     A.U. after    2 cycles

 The electronic state is 1-A.
 Alpha  occ. eigenvalues --  -93.94938 -93.92272 -11.33241 -11.26663 -11.25072
 Alpha  occ. eigenvalues --  -11.25010  -8.23029  -8.20563  -6.20893  -6.20747
 Alpha  occ. eigenvalues --   -6.20518  -6.18383  -6.18191  -6.17967  -1.13435
 Alpha  occ. eigenvalues --   -1.06199  -0.97497  -0.97132  -0.88508  -0.73224
 Alpha  occ. eigenvalues --   -0.62708  -0.62091  -0.62073  -0.61546  -0.59704
 Alpha  occ. eigenvalues --   -0.56591  -0.53950  -0.53622  -0.50601  -0.46886
 Alpha  occ. eigenvalues --   -0.39391  -0.36667  -0.34320
 Alpha virt. eigenvalues --    0.03252   0.03604   0.04044   0.04643   0.05680
 Alpha virt. eigenvalues --    0.05897   0.06460   0.07086   0.07951   0.08701
 Alpha virt. eigenvalues --    0.09397   0.10169   0.11707   0.12194   0.13099

 Mulliken charges:
               1
     1  H    0.084633
     2  H    0.191598
     3  H    0.126818
     4  H    0.371499
     5  C   -0.637321
     6  S   -0.156467
     7  H    0.178360
     8  H    0.247782
     9  H    0.236672
    10  H    0.158240
    11  H    0.308083
    12  C   -0.485496
    13  C   -0.401664
    14  S   -0.008764
    15  C   -0.396220
    16  H    0.182246
 Sum of Mulliken charges =   0.00000

 Dipole moment (field-independent basis, Debye):
    X=             -0.2540    Y=              1.4209    Z=              1.6080  Tot=              2.1608

 Test job not archived.
 1\1\GINC-SE083\SP\RHF\Aug-CC-pVDZ\C4H10S2\OHZDE\09-Apr-2025\0\\#t hf a
 ug-cc-pvdz iop(5/13=1,5/36=2,99/5=2) pseudo=read geom=check guess=(rea
 d,tcheck) scf=(maxcycle=1)\\title\\0,1\H,0,1.94048627,-0.28311522,0.30
 003006\H,0,2.70886397,-1.74966836,-0.33633756\H,0,2.5169729,-1.5499622
 2,1.41051358\H,0,-0.19256655,-1.5118813,1.21090974\C,0,2.06439688,-1.3
 5234501,0.4434425\S,0,0.46794236,-2.21627191,0.2804649\H,0,-2.76786656
 ,0.69121689,0.37000932\H,0,-2.82583104,1.14769254,-1.34615986\H,0,-2.1
 8395985,-0.4189906,-0.89268673\H,0,0.87775479,1.62337041,-1.68527767\H

 Normal termination of Gaussian 16 at Wed Apr  9 19:23:17 2025.
