 Gaussian 16, Revision C.01,

 ----------------------------------------------------------------------
 #t hf aug-cc-pvdz symm=none int=(grid=ultrafine) guess=(read,tcheck) s
 table=(opt,rrhf)
 ----------------------------------------------------------------------
 -----
 title
 -----
 Symbolic Z-matrix:
 Charge =  0 Multiplicity = 1

 SCF Done:  E(RHF) =  -747.043380240     A.U. after   14 cycles
 Normal termination of Gaussian 16 at Wed Apr  9 19:33:32 2025.
 Gaussian 16:  ES64L-G16RevC.01  3-Jul-2019

 ----------------------------------------------------------------------
 #t hf aug-cc-pvdz iop(5/13=1,5/36=2,99/5=2) pseudo=read geom=check gue
 ss=(read,tcheck) scf=(maxcycle=1)
 ----------------------------------------------------------------------
 -----
 title
 -----
 Structure from the checkpoint file:  "HB300SPXx10_1460_5.08_2.00_methylcyanate_phosphineF2_dimer_mol1.chk"
 Charge =  0 Multiplicity = 1

                         Standard orientation:
 ---------------------------------------------------------------------
 Center     Atomic      Atomic             Coordinates (Angstroms)
 Number     Number       Type             X           Y           Z
 ---------------------------------------------------------------------
      1          1           0       -4.231929   -1.058047    1.286937
      2          1           0       -4.834250   -1.727069   -0.257120
      3          1           0       -3.084269   -1.782351    0.118124
      4          6           0       -4.009859   -1.228510    0.237029
      5          8           0       -3.889346    0.062091   -0.442292
      6          6           0       -2.935724    0.812541   -0.039638
      7          7           0       -2.078057    1.509389    0.297130
      8         15           0        2.877706    0.421233   -0.158599
      9          9           0        1.787096   -0.765966   -0.114984
     10          9           0        4.172741   -0.473997    0.150322
     11          1           0        2.680996    0.842005    1.187075
 ---------------------------------------------------------------------

 SCF Done:  E(RHF) =  -747.469477821     A.U. after    2 cycles

 The electronic state is 1-A.
 Alpha  occ. eigenvalues --  -84.41226 -26.48052 -26.47784 -20.64719 -15.50871
 Alpha  occ. eigenvalues --  -11.34342 -11.34287  -6.86868  -4.39593  -4.38944
 Alpha  occ. eigenvalues --   -4.37940  -1.61920  -1.57745  -1.57371  -1.23266
 Alpha  occ. eigenvalues --   -1.01839  -0.88161  -0.80583  -0.71420  -0.70663
 Alpha  occ. eigenvalues --   -0.70601  -0.70145  -0.68892  -0.64567  -0.61632
 Alpha  occ. eigenvalues --   -0.61444  -0.59278  -0.58861  -0.57752  -0.49023
 Alpha  occ. eigenvalues --   -0.46506  -0.38624
 Alpha virt. eigenvalues --    0.02678   0.04606   0.05103   0.05234   0.06383
 Alpha virt. eigenvalues --    0.07953   0.08914   0.09353   0.11245   0.12006
 Alpha virt. eigenvalues --    0.12518   0.13787   0.14091   0.15481   0.15886

 Mulliken charges:
               1
     1  H    0.184382
     2  H    0.046790
     3  H    0.181187
     4  C    0.299606
     5  O   -1.011606
     6  C   -0.432029
     7  N    0.730045
     8  P    1.431739
     9  F   -0.760990
    10  F   -0.748966
    11  H    0.079842
 Sum of Mulliken charges =  -0.00000

 Dipole moment (field-independent basis, Debye):
    X=             -3.4018    Y=             -2.8542    Z=              0.3039  Tot=              4.4509

 Test job not archived.
 1\1\GINC-SE098\SP\RHF\Aug-CC-pVDZ\C2H4F2N1O1P1\OHZDE\09-Apr-2025\0\\#t
  hf aug-cc-pvdz iop(5/13=1,5/36=2,99/5=2) pseudo=read geom=check guess
 =(read,tcheck) scf=(maxcycle=1)\\title\\0,1\H,0,-2.89287834,1.38344137
 ,-2.41875402\H,0,-2.88368966,0.15494314,-3.71690786\H,0,-2.33807438,-0
 .28314113,-2.0686702\C,0,-2.39546429,0.50243917,-2.8151059\O,0,-1.0419
 8507,0.86597867,-3.23651367\C,0,-0.26338211,1.27221362,-2.30729377\N,0
 ,0.4658792,1.6354549,-1.48824768\P,0,2.07867943,-1.2129002,2.41522687\
 F,0,0.69107719,-1.56514185,1.67275746\F,0,1.8314193,-2.08078376,3.7417

 Normal termination of Gaussian 16 at Wed Apr  9 19:33:36 2025.
