 Gaussian 16, Revision C.01,

 ----------------------------------------------------------------------
 #t hf aug-cc-pvdz symm=none int=(grid=ultrafine) guess=(read,tcheck) s
 table=(opt,rrhf)
 ----------------------------------------------------------------------
 -----
 title
 -----
 Symbolic Z-matrix:
 Charge =  0 Multiplicity = 1

 SCF Done:  E(RHF) =  -1121.34733876     A.U. after   13 cycles
 Normal termination of Gaussian 16 at Wed Apr  9 19:26:24 2025.
 Gaussian 16:  ES64L-G16RevC.01  3-Jul-2019

 ----------------------------------------------------------------------
 #t hf aug-cc-pvdz iop(5/13=1,5/36=2,99/5=2) pseudo=read geom=check gue
 ss=(read,tcheck) scf=(maxcycle=1)
 ----------------------------------------------------------------------
 -----
 title
 -----
 Structure from the checkpoint file:  "HB300SPXx10_1098_4.13_1.25_Nmethylacetamide_dimethyldisulfide_dimer_mol1.chk"
 Charge =  0 Multiplicity = 1

                         Standard orientation:
 ---------------------------------------------------------------------
 Center     Atomic      Atomic             Coordinates (Angstroms)
 Number     Number       Type             X           Y           Z
 ---------------------------------------------------------------------
      1          6           0       -2.122627    1.675913   -0.756850
      2          1           0       -1.457809    1.488018   -1.599986
      3          1           0       -1.546762    2.126977    0.048959
      4          1           0       -2.895125    2.365610   -1.085699
      5          6           0       -2.772408    0.365402   -0.358014
      6          8           0       -3.693913   -0.114455   -0.996300
      7          7           0       -2.245725   -0.225131    0.746573
      8          1           0       -1.407085    0.170451    1.138462
      9          6           0       -2.640800   -1.550250    1.176813
     10          1           0       -3.648912   -1.739941    0.821732
     11          1           0       -1.978843   -2.318493    0.771483
     12          1           0       -2.623497   -1.608297    2.263479
     13          1           0        3.042955   -2.207624   -1.740415
     14          1           0        3.625348   -1.964184   -0.079198
     15          1           0        3.841832   -0.686023   -1.305647
     16          1           0        1.565751    2.327046   -0.473830
     17          1           0        3.290784    1.893265   -0.344958
     18          1           0        2.486780    2.738204    0.990669
     19          6           0        3.189628   -1.476896   -0.946211
     20         16           0        1.534784   -0.831460   -0.549039
     21         16           0        1.897577    0.443747    1.015565
     22          6           0        2.355902    2.004157    0.196752
 ---------------------------------------------------------------------

 SCF Done:  E(RHF) =  -1121.81742052     A.U. after    2 cycles

 The electronic state is 1-A.
 Alpha  occ. eigenvalues --  -93.98066 -93.97848 -20.49095 -15.51405 -11.34361
 Alpha  occ. eigenvalues --  -11.28067 -11.27826 -11.25653 -11.23721  -8.26056
 Alpha  occ. eigenvalues --   -8.25847  -6.23869  -6.23666  -6.23646  -6.23444
 Alpha  occ. eigenvalues --   -6.23433  -6.23219  -1.44108  -1.22930  -1.12976
 Alpha  occ. eigenvalues --   -1.03692  -1.01595  -0.93590  -0.93095  -0.82044
 Alpha  occ. eigenvalues --   -0.80910  -0.69755  -0.66168  -0.63975  -0.63024
 Alpha  occ. eigenvalues --   -0.61905  -0.61509  -0.59799  -0.58630  -0.57853
 Alpha  occ. eigenvalues --   -0.55921  -0.55315  -0.54777  -0.51138  -0.50326
 Alpha  occ. eigenvalues --   -0.46019  -0.41073  -0.40209  -0.37884  -0.36830
 Alpha virt. eigenvalues --    0.02861   0.03181   0.03828   0.04190   0.05215
 Alpha virt. eigenvalues --    0.05551   0.05912   0.06559   0.07063   0.07675
 Alpha virt. eigenvalues --    0.08028   0.08604   0.08903   0.10289   0.10883

 Mulliken charges:
               1
     1  C   -0.448275
     2  H    0.272230
     3  H    0.133882
     4  H    0.181042
     5  C    0.510836
     6  O   -1.352607
     7  N    0.735800
     8  H    0.085444
     9  C   -0.400632
    10  H    0.071593
    11  H    0.133573
    12  H    0.099892
    13  H    0.171069
    14  H    0.212329
    15  H    0.178049
    16  H    0.158046
    17  H    0.163447
    18  H    0.188561
    19  C   -0.871011
    20  S    0.357284
    21  S    0.120686
    22  C   -0.701235
 Sum of Mulliken charges =  -0.00000

 Dipole moment (field-independent basis, Debye):
    X=              5.4365    Y=              1.4244    Z=              0.9909  Tot=              5.7067

 Test job not archived.
 1\1\GINC-SE174\SP\RHF\Aug-CC-pVDZ\C5H13N1O1S2\OHZDE\09-Apr-2025\0\\#t
 hf aug-cc-pvdz iop(5/13=1,5/36=2,99/5=2) pseudo=read geom=check guess=
 (read,tcheck) scf=(maxcycle=1)\\title\\0,1\C,0,-1.31055971,-0.36190707
 ,2.17525478\H,0,-0.76310857,0.57466921,2.28149083\H,0,-0.59510431,-1.1
 7658722,2.08130356\H,0,-1.91110445,-0.50300543,3.06969011\C,0,-2.23351
 851,-0.24400233,0.97818704\O,0,-3.28055753,0.37845097,1.03390772\N,0,-
 1.80028089,-0.8717422,-0.1463058\H,0,-0.86873727,-1.25332097,-0.144399
 63\C,0,-2.47826303,-0.73306099,-1.41840567\H,0,-3.52176476,-0.50262299

 Normal termination of Gaussian 16 at Wed Apr  9 19:26:36 2025.
