 Gaussian 16, Revision C.01,

 ----------------------------------------------------------------------
 #t hf aug-cc-pvdz symm=none int=(grid=ultrafine) guess=(read,tcheck) s
 table=(opt,rrhf)
 ----------------------------------------------------------------------
 -----
 title
 -----
 Symbolic Z-matrix:
 Charge =  0 Multiplicity = 1

 SCF Done:  E(RHF) =  -645.423496581     A.U. after   14 cycles
 Normal termination of Gaussian 16 at Wed Apr  9 19:29:09 2025.
 Gaussian 16:  ES64L-G16RevC.01  3-Jul-2019

 ----------------------------------------------------------------------
 #t hf aug-cc-pvdz iop(5/13=1,5/36=2,99/5=2) pseudo=read geom=check gue
 ss=(read,tcheck) scf=(maxcycle=1)
 ----------------------------------------------------------------------
 -----
 title
 -----
 Structure from the checkpoint file:  "HB300SPXx10_124_1.13_0.95_sulfane_pyridine_dimer_mol1.chk"
 Charge =  0 Multiplicity = 1

                         Standard orientation:
 ---------------------------------------------------------------------
 Center     Atomic      Atomic             Coordinates (Angstroms)
 Number     Number       Type             X           Y           Z
 ---------------------------------------------------------------------
      1          1           0        1.967435   -0.305745   -0.026964
      2          1           0        3.423543   -0.040017    1.252459
      3         16           0        3.285502    0.011898   -0.080171
      4          1           0       -3.014035   -1.819422   -0.002954
      5          1           0       -0.575235   -2.292580   -0.001042
      6          6           0       -2.719217    0.316552    0.000219
      7          6           0       -2.302123   -1.007235   -0.000813
      8          6           0       -0.939161   -1.272822    0.000420
      9          7           0       -0.012181   -0.315645    0.002830
     10          6           0       -0.419624    0.953117    0.003613
     11          6           0       -1.759330    1.318660    0.002429
     12          1           0        0.361853    1.703089    0.004445
     13          1           0       -2.037841    2.362126    0.002813
     14          1           0       -3.771762    0.562054   -0.001049
 ---------------------------------------------------------------------

 SCF Done:  E(RHF) =  -645.740943579     A.U. after    2 cycles

 The electronic state is 1-A.
 Alpha  occ. eigenvalues --  -93.92872 -15.51837 -11.29288 -11.29150 -11.27715
 Alpha  occ. eigenvalues --  -11.25895 -11.25861  -8.21024  -6.18907  -6.18785
 Alpha  occ. eigenvalues --   -6.18561  -1.27607  -1.10580  -1.05283  -0.98829
 Alpha  occ. eigenvalues --   -0.89147  -0.88191  -0.75314  -0.70339  -0.67305
 Alpha  occ. eigenvalues --   -0.62516  -0.62041  -0.57813  -0.56247  -0.54851
 Alpha  occ. eigenvalues --   -0.49333  -0.44690  -0.41809  -0.37008  -0.36362
 Alpha virt. eigenvalues --    0.02833   0.03509   0.03863   0.05352   0.05542
 Alpha virt. eigenvalues --    0.06643   0.07385   0.08791   0.09107   0.10328
 Alpha virt. eigenvalues --    0.10787   0.12217   0.12418   0.13154   0.13599

 Mulliken charges:
               1
     1  H    0.471390
     2  H    0.231623
     3  S   -0.632664
     4  H   -0.189084
     5  H   -0.215292
     6  C    0.103905
     7  C    0.694912
     8  C   -0.708922
     9  N    0.885249
    10  C   -0.733465
    11  C    0.748611
    12  H   -0.293687
    13  H   -0.192714
    14  H   -0.169862
 Sum of Mulliken charges =  -0.00000

 Dipole moment (field-independent basis, Debye):
    X=             -4.6287    Y=              0.2888    Z=              0.8370  Tot=              4.7126

 Test job not archived.
 1\1\GINC-SE029\SP\RHF\Aug-CC-pVDZ\C5H7N1S1\OHZDE\09-Apr-2025\0\\#t hf
 aug-cc-pvdz iop(5/13=1,5/36=2,99/5=2) pseudo=read geom=check guess=(re
 ad,tcheck) scf=(maxcycle=1)\\title\\0,1\H,0,1.25021154,1.5960457,0.136
 91261\H,0,3.15091491,1.84193998,0.53016902\S,0,2.02337536,2.53859467,0
 .73260516\H,0,-1.80132776,-1.77931778,-2.39327674\H,0,-0.26294541,0.17
 03328,-2.33109368\C,0,-1.67404671,-2.09723794,-0.26441777\C,0,-1.37744
 669,-1.45026133,-1.45598418\C,0,-0.51753684,-0.36047743,-1.42237162\N,
 0,0.03689502,0.09347231,-0.29897477\C,0,-0.25233976,-0.5322589,0.84145

 Normal termination of Gaussian 16 at Wed Apr  9 19:29:14 2025.
