 Gaussian 16, Revision C.01,

 ----------------------------------------------------------------------
 #t hf aug-cc-pvdz symm=none int=(grid=ultrafine) guess=(read,tcheck) s
 table=(opt,rrhf)
 ----------------------------------------------------------------------
 -----
 title
 -----
 Symbolic Z-matrix:
 Charge =  0 Multiplicity = 1

 SCF Done:  E(RHF) =  -609.885429252     A.U. after   13 cycles
 Normal termination of Gaussian 16 at Wed Apr  9 19:24:11 2025.
 Gaussian 16:  ES64L-G16RevC.01  3-Jul-2019

 ----------------------------------------------------------------------
 #t hf aug-cc-pvdz iop(5/13=1,5/36=2,99/5=2) pseudo=read geom=check gue
 ss=(read,tcheck) scf=(maxcycle=1)
 ----------------------------------------------------------------------
 -----
 title
 -----
 Structure from the checkpoint file:  "HB300SPXx10_1053_4.09_0.90_ammonia_tetrahydrothiophene_dimer_mol1.chk"
 Charge =  0 Multiplicity = 1

                         Standard orientation:
 ---------------------------------------------------------------------
 Center     Atomic      Atomic             Coordinates (Angstroms)
 Number     Number       Type             X           Y           Z
 ---------------------------------------------------------------------
      1          7           0        2.570457   -0.602060   -0.266393
      2          1           0        2.014216    0.232745   -0.101987
      3          1           0        3.263182   -0.651464    0.470132
      4          1           0        3.074200   -0.462730   -1.133335
      5          1           0       -1.303479    0.215606    1.970694
      6          1           0        0.418977   -0.170332    2.061567
      7          1           0       -1.246165   -2.040877    1.093624
      8          1           0        0.261248    0.023061   -1.821658
      9          1           0        0.286124   -1.743440    0.264226
     10          1           0       -1.211393    1.001593   -1.901291
     11          1           0       -1.467488   -1.630079   -1.467756
     12          1           0       -2.415299   -0.524911   -0.474041
     13         16           0       -0.063269    1.311716    0.205253
     14          6           0       -0.425375   -0.053735    1.387176
     15          6           0       -0.670684   -1.300057    0.537899
     16          6           0       -1.399568   -0.837143   -0.722617
     17          6           0       -0.613544    0.353901   -1.265702
 ---------------------------------------------------------------------

 SCF Done:  E(RHF) =  -610.181614623     A.U. after    2 cycles

 The electronic state is 1-A.
 Alpha  occ. eigenvalues --  -93.93025 -15.47202 -11.25943 -11.25902 -11.23590
 Alpha  occ. eigenvalues --  -11.22922  -8.21175  -6.18972  -6.18855  -6.18642
 Alpha  occ. eigenvalues --   -1.13961  -1.12913  -0.98719  -0.98137  -0.79534
 Alpha  occ. eigenvalues --   -0.79414  -0.67280  -0.65503  -0.64902  -0.64363
 Alpha  occ. eigenvalues --   -0.60419  -0.55173  -0.51127  -0.49716  -0.48698
 Alpha  occ. eigenvalues --   -0.48431  -0.45547  -0.42935  -0.34214
 Alpha virt. eigenvalues --    0.03530   0.03808   0.03927   0.04565   0.05986
 Alpha virt. eigenvalues --    0.06286   0.06522   0.07637   0.07920   0.08944
 Alpha virt. eigenvalues --    0.09295   0.11499   0.13216   0.14557   0.14857

 Mulliken charges:
               1
     1  N   -0.054857
     2  H   -0.192961
     3  H    0.183510
     4  H    0.196832
     5  H    0.103771
     6  H    0.159736
     7  H    0.141576
     8  H    0.173775
     9  H    0.210528
    10  H    0.144033
    11  H    0.127158
    12  H    0.112335
    13  S    0.323734
    14  C   -0.509553
    15  C   -0.285897
    16  C   -0.362879
    17  C   -0.470841
 Sum of Mulliken charges =   0.00000

 Dipole moment (field-independent basis, Debye):
    X=             -0.0981    Y=             -0.8693    Z=             -0.2119  Tot=              0.9001

 Test job not archived.
 1\1\GINC-SE168\SP\RHF\Aug-CC-pVDZ\C4H11N1S1\OHZDE\09-Apr-2025\0\\#t hf
  aug-cc-pvdz iop(5/13=1,5/36=2,99/5=2) pseudo=read geom=check guess=(r
 ead,tcheck) scf=(maxcycle=1)\\title\\0,1\N,0,-1.82627315,2.2398073,0.1
 9813908\H,0,-1.3275361,1.71497926,-0.51540753\H,0,-2.80551666,2.240204
 76,-0.05849198\H,0,-1.50884454,3.19950412,0.14356214\H,0,-0.61438384,-
 2.12147625,-0.23895243\H,0,-1.91603485,-0.92585365,-0.25483789\H,0,-0.
 71870319,-1.45984478,2.08819411\H,0,0.94954185,1.61804372,0.42249148\H
 ,0,-1.05016943,0.22198872,1.65709516\H,0,2.25859231,0.59169541,-0.1821

 Normal termination of Gaussian 16 at Wed Apr  9 19:24:17 2025.
