 Gaussian 16, Revision C.01,

 ----------------------------------------------------------------------
 #t hf aug-cc-pvdz symm=none int=(grid=ultrafine) guess=(read,tcheck) s
 table=(opt,rrhf)
 ----------------------------------------------------------------------
 -----
 title
 -----
 Symbolic Z-matrix:
 Charge =  0 Multiplicity = 1

 SCF Done:  E(RHF) =  -1334.39454181     A.U. after   13 cycles
 Normal termination of Gaussian 16 at Wed Apr  9 19:28:50 2025.
 Gaussian 16:  ES64L-G16RevC.01  3-Jul-2019

 ----------------------------------------------------------------------
 #t hf aug-cc-pvdz iop(5/13=1,5/36=2,99/5=2) pseudo=read geom=check gue
 ss=(read,tcheck) scf=(maxcycle=1)
 ----------------------------------------------------------------------
 -----
 title
 -----
 Structure from the checkpoint file:  "HB300SPXx10_1314_4.36_0.95_hydrogenchloride_dimethyldisulfide_dimer_mol1.chk"
 Charge =  0 Multiplicity = 1

                         Standard orientation:
 ---------------------------------------------------------------------
 Center     Atomic      Atomic             Coordinates (Angstroms)
 Number     Number       Type             X           Y           Z
 ---------------------------------------------------------------------
      1          1           0       -1.714443   -0.195231    0.383081
      2         17           0       -2.880169   -0.543024   -0.091193
      3          1           0        3.528755   -1.236693   -0.542201
      4          1           0        3.264374   -0.261896    0.919261
      5          1           0        3.137679    0.485383   -0.696921
      6          1           0       -0.615418    1.374481   -1.411567
      7          1           0        0.916201    2.202760   -1.009652
      8          1           0       -0.587994    2.661283   -0.185625
      9          6           0        2.960776   -0.412884   -0.112244
     10         16           0        1.213607   -0.915380   -0.195928
     11         16           0        0.251633    0.644728    0.727205
     12          6           0       -0.029130    1.834842   -0.622178
 ---------------------------------------------------------------------

 SCF Done:  E(RHF) =  -1334.68647957     A.U. after    2 cycles

 The electronic state is 1-A.
 Alpha  occ. eigenvalues -- -105.55147 -93.98878 -93.98188 -11.28200 -11.28135
 Alpha  occ. eigenvalues --  -10.59963  -8.26895  -8.26197  -7.76933  -7.76579
 Alpha  occ. eigenvalues --   -7.76578  -6.24690  -6.24481  -6.24297  -6.24003
 Alpha  occ. eigenvalues --   -6.23788  -6.23557  -1.13606  -1.04889  -1.03664
 Alpha  occ. eigenvalues --   -0.93400  -0.82609  -0.64012  -0.62805  -0.61831
 Alpha  occ. eigenvalues --   -0.60126  -0.59721  -0.55532  -0.51603  -0.46358
 Alpha  occ. eigenvalues --   -0.45965  -0.45924  -0.38396  -0.37351
 Alpha virt. eigenvalues --    0.03019   0.03687   0.04623   0.05217   0.06491
 Alpha virt. eigenvalues --    0.06993   0.07933   0.08812   0.09740   0.11959
 Alpha virt. eigenvalues --    0.13085   0.13864   0.13918   0.14512   0.15078

 Mulliken charges:
               1
     1  H    0.411421
     2  Cl  -0.218437
     3  H    0.170219
     4  H    0.227913
     5  H    0.188758
     6  H    0.146988
     7  H    0.149582
     8  H    0.205051
     9  C   -0.748836
    10  S    0.217557
    11  S   -0.184016
    12  C   -0.566199
 Sum of Mulliken charges =  -0.00000

 Dipole moment (field-independent basis, Debye):
    X=              3.7499    Y=              2.1180    Z=             -0.6684  Tot=              4.3583

 Test job not archived.
 1\1\GINC-SE116\SP\RHF\Aug-CC-pVDZ\C2H7Cl1S2\OHZDE\09-Apr-2025\0\\#t hf
  aug-cc-pvdz iop(5/13=1,5/36=2,99/5=2) pseudo=read geom=check guess=(r
 ead,tcheck) scf=(maxcycle=1)\\title\\0,1\H,0,-0.26068265,0.62653872,-1
 .61580209\Cl,0,0.10581098,1.51670262,-2.49790267\H,0,1.84090341,-1.967
 7952,2.66025769\H,0,0.24256482,-2.58639106,2.19265922\H,0,0.38777824,-
 1.03973486,3.07202892\H,0,-0.55533997,1.90496489,0.6582725\H,0,-1.2447
 8997,1.0299796,2.05559019\H,0,-2.26196202,1.40805015,0.65049495\C,0,0.
 8408467,-1.69071428,2.32974787\S,0,1.06248021,-0.82297029,0.74544896\S

 Normal termination of Gaussian 16 at Wed Apr  9 19:28:54 2025.
